  270
Geometry Step: 55
    O     28.08910432     28.04230998     35.33560789      7.64622645
    O     34.16951562     30.82150049     29.28819642      7.59411178
    O     29.84187842     25.94423176     35.96408293      7.33097524
   Ti     31.85389205     26.06787726     35.54917148      1.57533485
    O     31.88931749     25.66127333     37.61519269      7.06494911
    O     30.77885733     27.96897105     31.77108834      7.59901025
   Ti     32.21410308     27.95393121     33.14953041      1.69447214
    O     32.10894103     28.02451929     35.20461484      7.06168686
    O     31.93248870     25.94306571     33.52273876      7.34312583
    O     33.87167708     25.70750215     35.84350722      7.13227308
   Ti     35.90458008     26.01174132     35.57137138      1.57992658
    O     35.80103100     25.50977471     37.61426771      7.05963120
    O     34.02535976     27.95755135     32.31445670      7.23753445
   Ti     35.80993631     27.94737237     33.20453919      1.69619982
    O     35.94575181     27.99318275     35.25941349      7.06763288
    O     35.88458550     25.91122512     33.54833834      7.34150317
    O     37.89829961     25.75441467     36.00637745      7.33629376
    O     37.29130917     27.86477273     31.88443704      7.59427192
    O     40.21503638     27.94454725     35.45624355      7.64402942
    O     29.64295158     34.06760386     29.82343573      7.18475271
    O     25.98755901     29.81055663     36.21052724      7.32903083
   Ti     27.94219140     30.05097645     35.57368281      1.76200480
    O     28.12690951     30.62441812     37.56748410      7.07748184
   Ti     28.16378019     32.21061762     33.39399744      1.43183296
    O     28.32283143     32.10697455     35.38536628      7.09429464
    O     27.44703762     30.34626728     33.58811450      7.31527090
    O     34.09005924     34.06505840     29.76833032      7.23759473
   Ti     30.15397313     32.32351350     30.60391260      1.13557811
    O     30.02199794     29.96753869     35.89487681      7.18020861
   Ti     32.05923211     30.05078668     35.51433618      1.71652942
    O     32.06451512     30.04703537     37.58915902      7.12032970
    O     29.99529901     32.16859513     32.59727752      6.99296273
   Ti     32.03463880     32.03366306     33.03144470      1.69020204
    O     32.09996351     32.05942875     30.94337858      7.06086780
    O     31.98748608     32.06117251     35.11188494      7.12662675
    O     32.04333271     30.00067049     33.43116297      7.14142650
    O     38.71272788     34.06308840     30.06151420      7.18502983
   Ti     34.11161126     32.27409724     30.64211732      1.68316416
    O     34.10016624     30.15349302     35.88832001      7.15905966
   Ti     36.15395394     30.02505072     35.57624716      1.70433768
    O     36.09419607     30.06249600     37.65230207      7.12395786
    O     34.08093664     32.04508910     32.69228823      7.12383093
   Ti     36.11280013     32.02497577     33.10662093      1.68998595
    O     36.12128100     32.14822451     31.01916105      7.06284910
    O     36.24654469     32.04200354     35.18377588      7.13379507
    O     36.07634209     29.98553187     33.49324083      7.14301096
   Ti     38.08622088     32.31804271     30.75110220      1.13603980
    O     38.18348299     29.90521926     36.00686498      7.17042080
   Ti     40.26915922     29.94681069     35.74808778      1.76133189
    O     40.13048046     30.01221705     37.83380864      7.07994109
    O     38.16402488     32.08415903     32.74169138      6.99111113
   Ti     39.94985524     32.13997088     33.62541680      1.42131808
    O     39.99178744     32.03118780     35.63645141      7.11123062
    O     40.63478749     30.25607296     33.72815870      7.32692484
    O     42.28698269     29.93816139     36.22183228      7.34027087
    O     25.94722230     34.08348277     36.32946069      7.34215732
   Ti     27.94324823     34.07057350     35.82999743      1.70911238
    O     28.10489118     34.05886594     37.90748880      7.07965634
   Ti     28.16733108     35.92812490     33.39386666      1.43369934
    O     28.34019781     36.03521686     35.38390687      7.09438703
    O     27.43718235     34.07073197     33.76279812      7.07104113
    O     34.17482437     37.30952081     29.28726949      7.59418132
   Ti     30.15622318     35.81286926     30.59975579      1.13551371
    O     30.05680640     34.06278483     36.02619409      7.18633234
   Ti     32.08372745     34.06661060     35.52873518      1.70736055
    O     32.13747613     34.09868937     37.60196261      7.12570689
    O     29.99683235     35.97018452     32.59276827      6.99271764
   Ti     32.03574589     36.10095732     33.02891690      1.69026484
    O     32.10219060     36.07589345     30.94075845      7.06092473
    O     31.98292999     36.07435152     35.10903988      7.12581801
    O     32.10293856     34.06755527     33.42626129      7.16126018
   Ti     34.11349508     35.85660429     30.64077962      1.68321214
    O     34.12857631     34.06462973     35.93548066      7.16519438
   Ti     36.17954165     34.06422279     35.58852647      1.70631684
    O     36.12671309     34.05265922     37.66893492      7.12100349
    O     34.08237543     36.08413334     32.69101903      7.12388440
   Ti     36.11426488     36.09857558     33.10592164      1.69019470
    O     36.12329277     35.97804225     31.01856493      7.06271187
    O     36.24491128     36.08454369     35.18357101      7.13355917
    O     36.08162343     34.06203363     33.50259695      7.15538776
   Ti     38.08827187     35.80880382     30.75096080      1.13626391
    O     38.19909426     34.06518239     36.08652689      7.17463236
   Ti     40.28546992     34.06065496     35.92481652      1.71895524
    O     40.15759266     34.06446914     37.99013270      7.07330874
    O     38.16586149     36.03810895     32.74208487      6.99129048
   Ti     39.95416579     35.97713070     33.62085973      1.42039298
    O     40.00098110     36.08834404     35.63177764      7.10889899
    O     40.60062886     34.05785869     33.84317815      7.07165754
    O     42.30381806     34.05321732     36.29411189      7.34019765
    O     26.00005107     38.33448609     36.22396985      7.33057809
   Ti     27.94995495     38.08613245     35.57322279      1.76298879
    O     28.13890324     37.52056727     37.56730640      7.07769866
    O     28.09536418     40.09050494     35.30959696      7.64623693
    O     27.43899150     37.78695558     33.59110542      7.31562293
    O     30.02940816     38.18335298     35.89882493      7.18133661
   Ti     32.06553937     38.07849421     35.51629470      1.71696599
    O     32.07397386     38.06487524     37.59103578      7.11821937
    O     30.77437796     40.16636721     31.78311665      7.59910453
   Ti     32.21822353     40.17967308     33.15263302      1.69471184
    O     32.12452546     40.10856390     35.20814988      7.06346332
    O     32.04761487     38.13308986     33.43293280      7.14160061
    O     34.10655157     37.97919726     35.89160849      7.15980590
   Ti     36.15978936     38.10396328     35.57191686      1.70414277
    O     36.10234896     38.07791952     37.64822113      7.12514025
    O     34.02547601     40.16927951     32.30902472      7.23748616
   Ti     35.81292423     40.17522011     33.19338667      1.69626227
    O     35.95487006     40.13280917     35.24805247      7.06712311
    O     36.07996136     38.13835853     33.48882994      7.14292115
    O     38.19104890     38.21464681     35.99954157      7.17100160
   Ti     40.27782821     38.16858876     35.74273582      1.76235347
    O     40.13888660     38.09718951     37.82760021      7.07957131
    O     37.28905549     40.25134355     31.86691119      7.59439585
    O     40.22594249     40.17147130     35.45807122      7.64408098
    O     40.64029998     37.86098488     33.72193603      7.32715253
    O     42.29576202     38.17363438     36.21709635      7.34045157
    O     29.86111810     42.19227610     35.97984240      7.33118072
   Ti     31.87104671     42.06519039     35.55418591      1.57521700
    O     31.91874220     42.46724970     37.62053782      7.06455881
    O     31.93960524     42.19061082     33.52700421      7.34331840
    O     33.89103709     42.42482082     35.83708344      7.13268225
   Ti     35.92188817     42.11621699     35.55309167      1.57958468
    O     35.83044787     42.61708629     37.59670802      7.05962796
    O     35.89338119     42.21205345     33.53017110      7.34113821
    O     37.91893035     42.36459916     35.97837641      7.33629497
    O     29.33691554     26.12687131     39.90182625      7.34689117
    O     33.76943084     25.91445642     39.92115217      7.33898062
    O     37.88092876     25.84280176     40.02503392      7.34629748
    O     26.91453000     30.05523317     40.09261672      6.49622735
    O     29.83188849     30.13981773     40.06808454      7.13596355
    O     27.48642020     28.81968873     40.69223694      6.70758756
   Ti     29.99840386     26.23019589     37.97582004      1.39270440
    O     33.94308247     30.00927750     40.05584954      7.17004468
   Ti     29.51221297     28.14103008     40.37408738      1.67520339
    O     29.67381536     28.17673719     38.27985167      7.07729166
    O     29.79910425     27.85729891     42.39318660      7.32204393
   Ti     31.76556304     28.31339081     42.48520647      1.38604074
    O     31.66462428     28.16980691     40.46743168      7.13580241
   Ti     33.86498452     26.05186885     37.90095638      1.60421994
    O     38.08176288     29.94403852     40.19234994      7.17414630
   Ti     33.72914541     27.94150186     40.23600089      1.70719691
    O     33.95010069     28.02862095     38.17767532      7.08002859
    O     33.69930965     27.66275654     42.30546635      7.07656270
   Ti     35.64268041     28.24104738     42.54613137      1.41516871
    O     35.79878199     28.13713029     40.54010632      7.12784053
   Ti     37.68881337     26.04032600     38.01611093      1.39722578
    O     42.34193492     30.01609104     40.21592437      7.33361747
   Ti     37.88719466     27.86664871     40.48462552      1.75720302
    O     37.95748076     27.98141134     38.39961816      7.08268574
    O     37.50736934     27.49901453     42.49569682      7.33183304
    O     39.87507420     27.82668199     40.88450515      7.64937123
    O     25.94030291     34.07117323     40.44693553      7.16377529
   Ti     26.26210740     30.28800632     38.15434336      1.37578079
    O     30.46808149     34.06922729     40.18172644      7.16277321
   Ti     26.37081851     32.02941025     40.68002201      1.51847883
    O     25.63627521     32.10078293     38.73423207      7.04838001
    O     26.19512959     31.87029700     42.68217795      7.31678725
   Ti     28.14396540     32.34029817     43.12145604      1.69599649
    O     28.24053391     32.60908620     41.06525233      7.06757654
    O     28.19147374     30.93182937     44.54170720      7.61400878
   Ti     30.06848563     30.15331018     37.98501710      1.73433837
    O     34.08127769     34.07192856     40.14728805      7.15628131
   Ti     30.15982708     32.08172475     40.60500950      1.73464831
    O     30.34572599     32.09947686     38.52687732      7.12621596
   Ti     32.34164513     30.10960766     45.47062452      1.11839436
    O     30.12393298     31.98417052     42.70651261      7.14000966
   Ti     32.14434108     32.06292552     43.10545483      1.70693468
    O     32.13992456     31.89232908     41.03161997      7.12145151
    O     32.45068248     32.07445704     45.16978453      7.05915171
    O     32.08229682     30.01713063     43.48425890      6.99562571
   Ti     34.07458935     30.08028789     37.97383839      1.72467617
    O     38.06487246     34.06514194     40.26071889      7.16719229
   Ti     34.11797399     32.03143972     40.53246223      1.70805665
    O     34.11296582     32.06970959     38.45238829      7.12217350
    O     34.05346758     29.40319012     46.21325108      7.07859096
   Ti     35.73948246     30.11410270     45.41566959      1.11744744
    O     34.13495595     32.22925273     42.62793882      7.14887372
   Ti     36.14087013     32.05713660     43.05279683      1.69799986
    O     36.11919634     31.93478755     40.97172795      7.12642976
    O     36.01816225     32.07209696     45.14822451      7.06848440
    O     35.88019967     30.02190919     43.41830914      6.99189401
   Ti     38.09326955     30.01376130     38.09960181      1.71228225
    O     42.37175826     34.05397658     40.38846296      7.13430697
   Ti     38.13008176     31.99534101     40.58075068      1.70188010
    O     38.10825212     32.03004669     38.50650939      7.13103794
    O     38.16537467     32.00393130     42.66543401      7.13642437
   Ti     40.19605562     32.24657411     42.98827029      1.69656153
    O     40.15936285     32.04322332     40.93564733      7.06690178
    O     40.21126339     30.81908605     44.36964366      7.59519069
   Ti     42.07520148     30.25728949     38.20960231      1.40342985
   Ti     42.14535146     32.01451295     40.65747149      1.57892351
    O     42.67596980     32.12308092     38.62250685      7.05688573
    O     42.22839312     32.08903948     42.67905848      7.33694524
    O     26.98870203     38.06690358     40.09800958      6.49972428
   Ti     26.14466928     34.07347272     38.35765005      1.55600842
    O     29.88126697     38.01193487     40.07738561      7.13491450
   Ti     26.40728156     36.10379294     40.68813879      1.51910697
    O     25.66392565     36.04904488     38.74526759      7.04794104
    O     26.22552321     36.33663380     42.68183972      7.31302578
   Ti     28.15897172     35.84579149     43.15075173      1.69467413
    O     28.25701980     35.47915805     41.10681067      7.06871311
    O     28.08272493     34.08615877     44.06425817      7.21526393
   Ti     30.15517490     34.06980627     38.10326900      1.74630121
    O     33.92836535     38.12873618     40.06055069      7.16987275
   Ti     30.15182163     36.06181776     40.61400980      1.73190081
    O     30.30176584     36.04112141     38.53366642      7.12660108
    O     30.91610722     34.03882077     46.84480653      7.57965556
   Ti     32.39197643     34.08733295     45.53301555      1.68578420
    O     30.11843119     36.27346102     42.70857477      7.13805227
   Ti     32.13658416     36.11863611     43.11098402      1.70561567
    O     32.13850187     36.19570487     41.03226794      7.12235313
    O     32.32342286     36.10874190     45.18945063      7.06291477
    O     32.00284110     34.09088124     43.50995162      7.11776650
   Ti     34.12361778     34.07121758     38.04540260      1.73893232
    O     38.10303836     38.18672643     40.18478504      7.17545420
   Ti     34.12317514     36.11126288     40.54456210      1.70656966
    O     34.15670778     36.07268827     38.46312863      7.12373953
    O     34.18649003     34.13978937     46.41630721      7.25010919
   Ti     35.95542275     34.09159965     45.49328296      1.68512589
    O     34.13841585     35.98958778     42.64731101      7.15277850
   Ti     36.15619289     36.12214027     43.05712316      1.69895820
    O     36.12779065     36.20352229     40.97354327      7.12731293
    O     36.10467190     36.10992413     45.14740719      7.06535130
    O     36.21310351     34.08907193     43.44919678      7.12097318
   Ti     38.10600850     34.06300932     38.17533146      1.71972199
    O     42.34434470     38.09293921     40.21021998      7.33361008
   Ti     38.13819737     36.13566058     40.57719656      1.70119629
    O     38.09985686     36.09542411     38.50329233      7.12964985
    O     37.44008822     34.06200861     46.80255309      7.58687132
    O     38.18033889     36.15525445     42.66162480      7.13685623
   Ti     40.20639382     35.88320715     42.98897326      1.69534898
    O     40.16747050     36.06569877     40.93230295      7.06840702
    O     40.15162675     34.06526184     43.80888677      7.23999219
   Ti     42.12713427     34.05490755     38.31807360      1.61009791
   Ti     42.15326874     36.09461368     40.65519984      1.57927868
    O     42.68384302     35.98271833     38.62060338      7.05600561
    O     42.23826433     36.03331631     42.67682115      7.33614964
   Ti     26.28150675     37.86624276     38.17061447      1.37089478
    O     29.37569161     42.02069206     39.92139233      7.34718751
    O     27.52878079     39.31020036     40.71177708      6.70685203
    O     28.18228283     37.20826046     44.61906242      7.61758639
   Ti     30.07831329     37.99429266     37.99013158      1.73436134
    O     33.81976945     42.22802214     39.91433407      7.34056479
   Ti     29.54968711     40.00654452     40.39425655      1.67651162
    O     29.69043811     39.96959808     38.29713591      7.07597862
   Ti     32.39197721     38.07908261     45.46795436      1.13579194
    O     29.83030488     40.29521741     42.41377800      7.32269427
   Ti     31.80555160     39.87821257     42.50679633      1.38532614
    O     31.69978185     40.00014838     40.48944467      7.13497838
    O     32.16137083     38.16747414     43.47799651      6.99613514
   Ti     34.08329443     38.05620126     37.97811749      1.72646109
    O     37.91346198     42.28909450     39.99669073      7.34647102
   Ti     33.76721403     40.20118132     40.24531775      1.70869332
    O     33.96805687     40.10370352     38.18527184      7.07658911
    O     34.12859462     38.68872811     46.19016827      7.18428798
   Ti     35.84461626     38.06563614     45.42713154      1.13629979
    O     33.74306603     40.51719288     42.31013536      7.07805077
   Ti     35.68498247     39.94089861     42.55794773      1.41678880
    O     35.82488187     39.98188449     40.54939496      7.12161257
    O     35.93862200     38.16062148     43.42685185      6.99173848
   Ti     38.10231665     38.10945142     38.09242127      1.71323147
   Ti     37.91094911     40.26796836     40.46971245      1.75587518
    O     37.97065647     40.14270343     38.38592017      7.08075818
    O     37.54703763     40.68544295     42.47439358      7.33170703
    O     39.90064258     40.29381473     40.86217702      7.64935916
    O     40.23848483     37.29860972     44.38507389      7.59692017
   Ti     42.08302496     37.84818136     38.20388456      1.40337542
   Ti     30.02624924     41.91199936     37.99189995      1.39376595
   Ti     33.89559295     42.07657755     37.89455556      1.60576095
   Ti     37.71831039     42.08084571     37.98932186      1.39905837
   Ba     34.06489468     27.85418590     48.55236218      0.14126489
