  272
Geometry Step: 78
    O     28.09233003     28.04571139     35.33875628      7.64629458
    O     34.17434433     30.82072923     29.28720439      7.59404762
    O     29.83972456     25.93988234     35.96378235      7.33161016
   Ti     31.85158198     26.07113094     35.54841709      1.57513272
    O     31.88720708     25.68760520     37.61810773      7.06459920
    O     30.77397401     27.97022429     31.77089863      7.59898036
   Ti     32.21048747     27.95689567     33.14796781      1.69477346
    O     32.10682053     28.02744897     35.20309240      7.06149868
    O     31.92940099     25.94622759     33.52103289      7.34370011
    O     33.86869068     25.70452338     35.84220211      7.13231906
   Ti     35.90107081     26.01196466     35.56568376      1.57957394
    O     35.80125152     25.51634878     37.60983363      7.05956370
    O     34.02070888     27.96220831     32.31078364      7.23749058
   Ti     35.80446714     27.94974006     33.20247763      1.69642927
    O     35.94062314     27.99438790     35.25749307      7.06780871
    O     35.87665123     25.91314301     33.54248529      7.34141690
    O     37.89557663     25.75803421     35.99962558      7.33644497
    O     37.28652730     27.86546026     31.88331245      7.59427968
    O     40.20992359     27.94562400     35.45985290      7.64403452
    O     29.65244671     34.06911553     29.81465903      7.18469550
    O     25.98720831     29.81595247     36.20869144      7.32888513
   Ti     27.94128508     30.05499002     35.57014507      1.76206971
    O     28.12669060     30.63328294     37.56264020      7.07750192
   Ti     28.16406589     32.21236400     33.38806721      1.43145743
    O     28.32053283     32.11069609     35.37967542      7.09416156
    O     27.45277176     30.34569147     33.58249583      7.31528299
    O     34.08553219     34.06400502     29.76536190      7.23752700
   Ti     30.15612058     32.32511456     30.59997918      1.13563264
    O     30.02112663     29.97246576     35.89082001      7.18033249
   Ti     32.05885141     30.05385489     35.51244096      1.71674019
    O     32.06300051     30.04830563     37.58706866      7.12003678
    O     29.99638081     32.17449732     32.59357155      6.99273040
   Ti     32.03471700     32.03617228     33.02959387      1.69042858
    O     32.10078252     32.05444492     30.94129598      7.06082217
    O     31.98656410     32.06429587     35.11013057      7.12678997
    O     32.04124158     30.00352455     33.42950331      7.14113473
    O     38.72195962     34.05945209     30.06684916      7.18495887
   Ti     34.11181625     32.27378057     30.64034700      1.68341828
    O     34.09893851     30.15677297     35.88879394      7.15881693
   Ti     36.15223665     30.02591941     35.57588003      1.70425701
    O     36.09219132     30.07239108     37.65181699      7.12459788
    O     34.08081867     32.04654999     32.69069422      7.12369118
   Ti     36.11233790     32.02607480     33.10580822      1.69023746
    O     36.12144695     32.15537665     31.01863176      7.06281642
    O     36.24534184     32.04309212     35.18308578      7.13412363
    O     36.07402785     29.98697194     33.49289252      7.14287614
   Ti     38.08709536     32.31507914     30.75025307      1.13617699
    O     38.18129815     29.90532447     36.00736625      7.17067350
   Ti     40.26713654     29.94834861     35.74807140      1.76152726
    O     40.12755233     30.02159705     37.83281625      7.07921284
    O     38.16351589     32.07858314     32.74048928      6.99091246
   Ti     39.94978823     32.13871169     33.62263331      1.42146178
    O     39.98644441     32.03208260     35.63359577      7.11096589
    O     40.63395747     30.25466973     33.72808099      7.32683514
    O     42.28476477     29.93832304     36.22251963      7.34040243
    O     25.94597905     34.08841894     36.32044537      7.34215891
   Ti     27.94259956     34.07467051     35.82322708      1.70912582
    O     28.10278127     34.05925297     37.90063816      7.07963917
   Ti     28.17055218     35.93100556     33.38871723      1.43434395
    O     28.33999633     36.04008913     35.37914000      7.09450508
    O     27.43977788     34.07388898     33.75537660      7.07099573
    O     34.18334290     37.30710357     29.28391281      7.59411384
   Ti     30.15996583     35.81453521     30.59422084      1.13558610
    O     30.05590174     34.06578080     36.02151950      7.18606246
   Ti     32.08297374     34.06992731     35.52675770      1.70744783
    O     32.13571021     34.11033468     37.60038389      7.12565134
    O     29.99966798     35.96912910     32.58730900      6.99233869
   Ti     32.03739371     36.10296824     33.02516528      1.69057903
    O     32.10498375     36.08187245     30.93680769      7.06091891
    O     31.98118024     36.07713368     35.10512694      7.12561189
    O     32.10485515     34.06990330     33.42422436      7.16130447
   Ti     34.11554270     35.85522733     30.63811129      1.68346070
    O     34.12674755     34.06618333     35.93622029      7.16488189
   Ti     36.17678630     34.06542075     35.58807054      1.70680730
    O     36.12368580     34.05837521     37.66856005      7.12112865
    O     34.08371824     36.08385161     32.68819327      7.12363905
   Ti     36.11509541     36.09866854     33.10430477      1.69030227
    O     36.12528792     35.96842449     31.01735230      7.06273873
    O     36.24098754     36.08557616     35.18225807      7.13351157
    O     36.08319318     34.06266878     33.50232207      7.15496660
   Ti     38.09078652     35.80507611     30.75040092      1.13626484
    O     38.19482714     34.06652802     36.08915886      7.17399896
   Ti     40.27958999     34.06154360     35.92287765      1.71924115
    O     40.15234808     34.06669833     37.98855744      7.07297222
    O     38.16661703     36.04021751     32.74088531      6.99104197
   Ti     39.95569399     35.97827974     33.61731309      1.42069926
    O     39.99676529     36.08943307     35.62806441      7.10880434
    O     40.59684811     34.05765273     33.84149517      7.07176490
    O     42.29805878     34.05529615     36.29153136      7.34018832
    O     25.99647216     38.33395959     36.20866488      7.33067797
   Ti     27.94907860     38.09153928     35.56342715      1.76319682
    O     28.13494133     37.53653429     37.56019914      7.07763126
    O     28.09035945     40.09539426     35.29555096      7.64606668
    O     27.44230550     37.79016330     33.58042491      7.31561048
    O     30.02784747     38.19018478     35.89413208      7.18171809
   Ti     32.06379085     38.08101897     35.51199506      1.71726250
    O     32.07149271     38.06098812     37.58671066      7.11798068
    O     30.77617310     40.16814052     31.77696118      7.59909139
   Ti     32.21906727     40.18170031     33.14755538      1.69443681
    O     32.12368223     40.11076628     35.20315797      7.06357985
    O     32.04830851     38.13514614     33.42853192      7.14160598
    O     34.10421563     37.98300613     35.88946765      7.15956984
   Ti     36.15699871     38.10502644     35.56980318      1.70458648
    O     36.09934741     38.08354647     37.64645963      7.12526748
    O     34.02657171     40.16987888     32.30414018      7.23763691
   Ti     35.81369670     40.17529314     33.18939416      1.69622253
    O     35.95606903     40.13364692     35.24407110      7.06699658
    O     36.07949973     38.13852331     33.48658581      7.14292636
    O     38.18773875     38.21360760     35.99815820      7.17074123
   Ti     40.27371244     38.16985603     35.73913761      1.76254492
    O     40.13599207     38.09763353     37.82398367      7.07968540
    O     37.29089511     40.25081088     31.86415188      7.59427282
    O     40.21935889     40.17246282     35.45288842      7.64409135
    O     40.63986473     37.86277817     33.71903687      7.32717907
    O     42.29206853     38.17884070     36.21138571      7.34018926
    O     29.85977494     42.19192920     35.97555331      7.33090896
   Ti     31.86944898     42.06713000     35.55016026      1.57524553
    O     31.91782325     42.48025794     37.61468463      7.06441026
    O     31.94026800     42.19250953     33.52306011      7.34329104
    O     33.88955457     42.42478522     35.83354885      7.13270637
   Ti     35.92016656     42.11663260     35.55035629      1.57984448
    O     35.82827486     42.61789752     37.59387208      7.05964661
    O     35.89275790     42.21201762     33.52729009      7.34128982
    O     37.91675268     42.36855666     35.97521999      7.33628216
    O     29.35092504     26.13371465     39.90869713      7.34711301
    O     33.77856747     25.91889311     39.91846368      7.33902534
    O     37.87010926     25.84797278     40.01897196      7.34640834
    O     26.92231900     30.06423240     40.08967546      6.49681418
    O     29.83658735     30.14583237     40.06455141      7.13489141
    O     27.49184565     28.82844431     40.69158540      6.70805019
   Ti     29.99075897     26.23745108     37.97501468      1.39243807
    O     33.92976100     30.01388249     40.05657137      7.17062294
   Ti     29.51885481     28.14893272     40.37763253      1.67569371
    O     29.66627553     28.18342494     38.28133134      7.07738577
    O     29.79755937     27.87534299     42.39971324      7.32286708
   Ti     31.76961294     28.30920164     42.49442203      1.38372490
    O     31.67006108     28.16954035     40.47536320      7.13593984
   Ti     33.86641846     26.06146602     37.89807256      1.60407394
    O     38.08829126     29.94756491     40.19354123      7.17538884
   Ti     33.73524321     27.94454813     40.24244755      1.70775296
    O     33.95878675     28.03603045     38.18361202      7.07945387
    O     33.70637203     27.66426196     42.31219998      7.07725364
   Ti     35.65095898     28.23360768     42.55932152      1.41479051
    O     35.79958174     28.15169671     40.55186095      7.12516923
   Ti     37.68852487     26.04893241     38.00915516      1.39730461
    O     42.33138249     30.02221055     40.21769676      7.33374647
   Ti     37.88473785     27.86996166     40.48541805      1.75743531
    O     37.94648425     27.98950241     38.40052401      7.08178188
    O     37.51162541     27.48142331     42.49435780      7.33249425
    O     39.87271495     27.83138899     40.88280761      7.64914896
    O     25.94406235     34.08041478     40.43815201      7.16345197
   Ti     26.26343935     30.29320296     38.15244053      1.37519580
    O     30.46762150     34.07425965     40.17682910      7.16394688
   Ti     26.38118949     32.04069234     40.67288330      1.51949686
    O     25.64043693     32.10780826     38.72938691      7.04849284
    O     26.19567018     31.87223620     42.67265229      7.31652876
   Ti     28.14479588     32.33252412     43.12381327      1.69584263
    O     28.24669946     32.62629661     41.07097935      7.06757400
    O     28.16601678     30.93040449     44.55162279      7.61467964
   Ti     30.06685871     30.15825368     37.98102337      1.73430301
    O     34.09192972     34.07270838     40.14911627      7.15662182
   Ti     30.16133671     32.08613063     40.60678992      1.73388206
    O     30.34918828     32.10337937     38.52693491      7.12734515
   Ti     32.38039041     30.09998925     45.47880322      1.11648614
    O     30.12029671     31.95527503     42.70831680      7.14121016
   Ti     32.14103465     32.05653731     43.11889182      1.70528363
    O     32.13920624     31.90941292     41.04378001      7.12025946
    O     32.47254446     32.06989899     45.18080918      7.06255289
    O     32.09327665     30.01007469     43.49619368      6.99565343
   Ti     34.07234792     30.08574670     37.97450416      1.72525814
    O     38.05606595     34.06747554     40.26334493      7.16684049
   Ti     34.11641694     32.03289453     40.53953302      1.70788545
    O     34.11253818     32.07330353     38.45837828      7.12219542
    O     34.08823969     29.35552524     46.19313179      7.07774109
   Ti     35.77532946     30.10267694     45.43400256      1.11841262
    O     34.13330798     32.21339881     42.63740010      7.14965611
   Ti     36.13916927     32.04482877     43.06373759      1.69799920
    O     36.11576055     31.91749633     40.98300763      7.12611339
    O     35.99095094     32.06666305     45.15865480      7.06764329
    O     35.91840342     30.00784182     43.43709064      6.99096122
   Ti     38.09122216     30.01984813     38.10021423      1.71268627
    O     42.36206926     34.06143399     40.38535830      7.13417718
   Ti     38.12521915     31.99857353     40.58664628      1.70151735
    O     38.10119716     32.03454811     38.51211823      7.13050849
    O     38.16487865     32.00804333     42.67171086      7.13755036
   Ti     40.19622274     32.24684013     42.99378457      1.69537038
    O     40.15474357     32.05271838     40.93990723      7.06725736
    O     40.22027294     30.82194914     44.37949746      7.59596243
   Ti     42.07251047     30.26040264     38.21009413      1.40350482
   Ti     42.13989109     32.02192704     40.65710835      1.57883197
    O     42.66795827     32.12811535     38.62130983      7.05685737
    O     42.22836979     32.09209826     42.67899346      7.33723248
    O     26.98784858     38.07559689     40.08481077      6.49996538
   Ti     26.14231415     34.08146984     38.34876661      1.55592603
    O     29.88795355     38.01805453     40.07457132      7.13494902
   Ti     26.40552864     36.11438364     40.67727981      1.51937324
    O     25.66098575     36.05750187     38.73458781      7.04810212
    O     26.22408639     36.33890491     42.67230873      7.31376058
   Ti     28.15649182     35.84078317     43.14097050      1.69477328
    O     28.25559415     35.49089001     41.09469116      7.06835119
    O     28.09813728     34.08225125     44.05877087      7.21506646
   Ti     30.15289644     34.07266326     38.09878946      1.74620145
    O     33.92163899     38.13016646     40.05895871      7.17025866
   Ti     30.15402997     36.06701294     40.61054991      1.73252742
    O     30.28798532     36.04492300     38.52942919      7.12670001
    O     30.91826438     34.03680067     46.84967275      7.57844563
   Ti     32.39572875     34.08496002     45.54116460      1.68543385
    O     30.11804018     36.26388049     42.70665742      7.13806933
   Ti     32.13518063     36.10707329     43.11229408      1.70449557
    O     32.13926953     36.18542091     41.03386371      7.12107132
    O     32.32990609     36.10498187     45.19141431      7.06222278
    O     31.98721888     34.08278974     43.52187049      7.11624468
   Ti     34.12121863     34.07335921     38.04659570      1.73889405
    O     38.09970446     38.18870056     40.18407430      7.17575095
   Ti     34.12282087     36.11273131     40.54489288      1.70676652
    O     34.15806713     36.07520133     38.46329751      7.12414524
    O     34.18856537     34.14290611     46.42927967      7.25156566
   Ti     35.95649796     34.08363182     45.50402714      1.68667345
    O     34.13749483     35.97375633     42.64705586      7.15311949
   Ti     36.15521657     36.10601330     43.05640154      1.69828791
    O     36.12626599     36.20464471     40.97473288      7.12627964
    O     36.10547951     36.10059372     45.15400080      7.06781206
    O     36.21268715     34.07632299     43.46036690      7.12002611
   Ti     38.10194601     34.06571506     38.17792027      1.72068939
    O     42.34429187     38.10134413     40.20325871      7.33349690
   Ti     38.13655152     36.13772292     40.57785373      1.70136834
    O     38.09713021     36.09774610     38.50430474      7.12891460
    O     37.46020520     34.05032398     46.79030149      7.58600359
    O     38.17926041     36.13726243     42.66225401      7.13688894
   Ti     40.20778969     35.88496141     42.98608411      1.69514602
    O     40.16655926     36.07599212     40.93031576      7.06822938
    O     40.14983831     34.06778434     43.81009590      7.24103668
   Ti     42.12184876     34.06069588     38.31522428      1.61035841
   Ti     42.15216067     36.10336486     40.65031011      1.57863694
    O     42.68332138     35.98794005     38.61573498      7.05613895
    O     42.23940609     36.03941688     42.67190401      7.33633830
   Ti     26.27457847     37.87557366     38.15808358      1.36928871
    O     29.37238708     42.02719359     39.91686714      7.34704126
    O     27.52815498     39.31644507     40.70270851      6.70628309
    O     28.17792031     37.20610644     44.60643474      7.61745383
   Ti     30.07595037     37.99954744     37.98608210      1.73402246
    O     33.81980862     42.23038248     39.91232117      7.34029739
   Ti     29.54773192     40.01227957     40.38573937      1.67729665
    O     29.69863837     39.97738599     38.29066010      7.07571212
   Ti     32.39757234     38.07606148     45.45516382      1.13725294
    O     29.82841015     40.29267949     42.40644590      7.32345352
   Ti     31.80434153     39.87346068     42.49732099      1.38345606
    O     31.69767012     40.01015479     40.47997518      7.13572947
    O     32.15816119     38.15950820     43.46554969      6.99735224
   Ti     34.08018862     38.05853055     37.97623041      1.72578513
    O     37.90436387     42.29160055     39.99329163      7.34619454
   Ti     33.76565932     40.20352704     40.23891379      1.70941317
    O     33.96153174     40.10700300     38.17900147      7.07673539
    O     34.13761133     38.68526697     46.16699056      7.18322230
   Ti     35.85749908     38.05938125     45.41824563      1.13836531
    O     33.74414866     40.50686343     42.30543577      7.07753738
   Ti     35.68362812     39.92398544     42.54971743      1.41810606
    O     35.82311507     39.97908026     40.54183865      7.12234670
    O     35.95092821     38.14602294     43.41852269      6.99066617
   Ti     38.09936548     38.11050100     38.09118242      1.71316178
   Ti     37.90963570     40.27047732     40.46582715      1.75603028
    O     37.97450432     40.14433154     38.38230228      7.08053187
    O     37.53862391     40.68441927     42.46989401      7.33121437
    O     39.89748454     40.29916816     40.86466753      7.64874071
    O     40.23131731     37.31211423     44.36979778      7.59628306
   Ti     42.08101746     37.85279690     38.19786207      1.40394499
   Ti     30.02679753     41.92174589     37.98865984      1.39373289
   Ti     33.89264720     42.08106690     37.89190342      1.60539097
   Ti     37.71640152     42.08168005     37.98570632      1.39904451
   Ba     34.09817768     27.30075414     48.10278950      0.21299105
    H     34.05800059     28.30483905     50.87449574      0.96493719
    H     34.06966729     27.57362497     51.07999843      0.96336034
