  270
Geometry Step: 38
    O     28.09014807     28.04432459     35.33839323      7.64646899
    O     34.16848234     30.82216223     29.28904173      7.59409701
    O     29.84240045     25.94873075     35.96736343      7.33122929
   Ti     31.85455511     26.06860363     35.55121031      1.57496728
    O     31.89029942     25.65895904     37.61613855      7.06446235
    O     30.78047278     27.97043773     31.77240044      7.59901331
   Ti     32.21512345     27.95472218     33.15143077      1.69450310
    O     32.10999158     28.02551380     35.20660679      7.06188508
    O     31.93230461     25.94399288     33.52446220      7.34320373
    O     33.87292791     25.71166845     35.84609003      7.13284507
   Ti     35.90651085     26.01323137     35.57404814      1.57973731
    O     35.79990692     25.50973513     37.61696082      7.05948303
    O     34.02614456     27.95798303     32.31590407      7.23748144
   Ti     35.81066841     27.94807093     33.20620480      1.69606499
    O     35.94605919     27.99427046     35.26119051      7.06759442
    O     35.88751484     25.91216173     33.55121731      7.34132038
    O     37.89987468     25.75846605     36.01302738      7.33644747
    O     37.29100887     27.86647225     31.88478142      7.59431245
    O     40.21321514     27.94519840     35.45729480      7.64411348
    O     29.64183034     34.06738035     29.82487992      7.18477412
    O     25.99000215     29.81098301     36.21599580      7.32881237
   Ti     27.94367640     30.05305237     35.57761496      1.76227683
    O     28.12989032     30.63065743     37.57034714      7.07716792
   Ti     28.16437696     32.21050647     33.39544837      1.43188191
    O     28.32747493     32.10742627     35.38642704      7.09387438
    O     27.44764513     30.34644941     33.59208270      7.31522007
    O     34.09044881     34.06532948     29.76890767      7.23755532
   Ti     30.15394381     32.32343322     30.60500460      1.13555733
    O     30.02287007     29.96689757     35.89936120      7.18016720
   Ti     32.06011045     30.05141781     35.51725380      1.71654085
    O     32.06543601     30.04706815     37.59218554      7.12066038
    O     29.99569189     32.16793373     32.59833363      6.99293212
   Ti     32.03500662     32.03396675     33.03280474      1.69019024
    O     32.10007761     32.06051610     30.94459083      7.06091976
    O     31.98730594     32.06135695     35.11335786      7.12664510
    O     32.04437066     30.00126930     33.43382972      7.14149496
    O     38.71095830     34.06376496     30.06056567      7.18503873
   Ti     34.11171322     32.27459984     30.64314287      1.68325152
    O     34.10029737     30.15478042     35.89341552      7.15895406
   Ti     36.15362819     30.02596129     35.57910409      1.70452571
    O     36.09398161     30.06346969     37.65513835      7.12408643
    O     34.08122054     32.04538179     32.69333113      7.12388642
   Ti     36.11306395     32.02541803     33.10807562      1.68991078
    O     36.12115275     32.14770333     31.02040799      7.06283986
    O     36.24694480     32.04250106     35.18526851      7.13380988
    O     36.07631186     29.98621583     33.49601711      7.14305632
   Ti     38.08581730     32.31865414     30.75129578      1.13599709
    O     38.18244175     29.90470265     36.01175184      7.17054213
   Ti     40.26771913     29.94741756     35.74989066      1.76133236
    O     40.12879435     30.01384590     37.83597822      7.07976873
    O     38.16402385     32.08568286     32.74198671      6.99106024
   Ti     39.94974198     32.14012845     33.62597723      1.42122928
    O     39.98997504     32.03140257     35.63693956      7.11100359
    O     40.63287329     30.25558142     33.72961523      7.32702254
    O     42.28538834     29.93824402     36.22352070      7.34034665
    O     25.95007857     34.08261802     36.33336626      7.34210805
   Ti     27.94596985     34.06992112     35.83341664      1.70910253
    O     28.10819051     34.05288449     37.91116176      7.07944896
   Ti     28.16769950     35.92716248     33.39600572      1.43387232
    O     28.34448592     36.03383791     35.38566752      7.09430729
    O     27.43773306     34.07011743     33.76652741      7.07107865
    O     34.17327784     37.30926097     29.28833602      7.59416744
   Ti     30.15563915     35.81256268     30.60110471      1.13548239
    O     30.05897953     34.06098026     36.03326384      7.18622886
   Ti     32.08449297     34.06629504     35.53227512      1.70741670
    O     32.13922315     34.09679876     37.60588582      7.12585190
    O     29.99680139     35.97013386     32.59410302      6.99266677
   Ti     32.03559056     36.10046820     33.03060055      1.69028384
    O     32.10167152     36.07476926     30.94232052      7.06095712
    O     31.98282637     36.07357872     35.11085795      7.12587558
    O     32.10300330     34.06742920     33.42937927      7.16134335
   Ti     34.11299074     35.85652545     30.64205909      1.68328585
    O     34.12858645     34.06289265     35.94130463      7.16524896
   Ti     36.17858759     34.06457881     35.59099339      1.70632113
    O     36.12628071     34.05289167     37.67166611      7.12108147
    O     34.08206240     36.08403413     32.69233253      7.12388579
   Ti     36.11397804     36.09870259     33.10722452      1.69018988
    O     36.12266855     35.97886556     31.01974044      7.06270874
    O     36.24507805     36.08445033     35.18490166      7.13346803
    O     36.08019799     34.06231789     33.50468259      7.15552594
   Ti     38.08753452     35.80927079     30.75145057      1.13621796
    O     38.19723154     34.06370667     36.09209414      7.17472085
   Ti     40.28296558     34.06065145     35.92693507      1.71902107
    O     40.15550584     34.06055856     37.99256228      7.07315786
    O     38.16542131     36.03744500     32.74272751      6.99122749
   Ti     39.95325897     35.97733780     33.62232175      1.42058994
    O     39.99782281     36.08814953     35.63330783      7.10883161
    O     40.59951276     34.05821288     33.84531759      7.07172623
    O     42.30141973     34.05368049     36.29587466      7.34021205
    O     26.00181392     38.33449674     36.22655477      7.33028911
   Ti     27.95145978     38.08431894     35.57615280      1.76299843
    O     28.13978578     37.51538034     37.56956687      7.07773898
    O     28.09825789     40.08863647     35.31212755      7.64627651
    O     27.43939007     37.78578943     33.59434807      7.31544415
    O     30.03032053     38.18143725     35.90342520      7.18133271
   Ti     32.06608504     38.07756710     35.51905452      1.71690612
    O     32.07457930     38.05920950     37.59407331      7.11833363
    O     30.77482432     40.16594100     31.78454587      7.59908841
   Ti     32.21792067     40.17886920     33.15485645      1.69468665
    O     32.12426119     40.10768596     35.21051078      7.06355082
    O     32.04741463     38.13238693     33.43556715      7.14158322
    O     34.10662536     37.97688774     35.89516072      7.15963516
   Ti     36.15935406     38.10357542     35.57429149      1.70424447
    O     36.10252631     38.07198200     37.65069364      7.12516179
    O     34.02489937     40.16914396     32.31054661      7.23746060
   Ti     35.81241932     40.17477587     33.19463015      1.69622276
    O     35.95416216     40.13216518     35.24942742      7.06738817
    O     36.07949519     38.13815985     33.49118001      7.14284268
    O     38.19041935     38.21417883     36.00262467      7.17109930
   Ti     40.27708934     38.16817222     35.74459234      1.76232246
    O     40.13863599     38.09632007     37.82951810      7.07955195
    O     37.28858818     40.25095576     31.86808408      7.59444061
    O     40.22597761     40.17090842     35.45894526      7.64402029
    O     40.63998251     37.86089218     33.72379772      7.32710149
    O     42.29516897     38.17218750     36.21831864      7.34042203
    O     29.86101177     42.19077984     35.98360377      7.33138143
   Ti     31.87106376     42.06442553     35.55655834      1.57484485
    O     31.91923020     42.46312554     37.62352991      7.06447840
    O     31.94011748     42.18985684     33.52924025      7.34336050
    O     33.89129976     42.42285687     35.83997165      7.13259406
   Ti     35.92217400     42.11588328     35.55573161      1.57915649
    O     35.83036756     42.61536454     37.59858883      7.05929361
    O     35.89329569     42.21153172     33.53192958      7.34165548
    O     37.91942360     42.36184157     35.98154354      7.33630910
    O     29.34288842     26.12599598     39.90766095      7.34702703
    O     33.76751317     25.91363073     39.92544702      7.33921817
    O     37.87140111     25.84335611     40.03315668      7.34650626
    O     26.92375642     30.05512291     40.09678181      6.49661697
    O     29.82116958     30.14021679     40.07152254      7.13634623
    O     27.48752236     28.81534148     40.69585895      6.70758121
   Ti     30.00025113     26.22861399     37.97998914      1.39248565
    O     33.94768116     30.00556228     40.06097469      7.17023540
   Ti     29.51625924     28.13992658     40.38156395      1.67607956
    O     29.68406844     28.17569212     38.28761351      7.07704085
    O     29.79747361     27.85011282     42.40025600      7.32143748
   Ti     31.76235285     28.30636249     42.50101143      1.38689300
    O     31.66664600     28.17831892     40.48220541      7.13460866
   Ti     33.86465007     26.05335105     37.90469482      1.60417663
    O     38.08154467     29.94262610     40.19762620      7.17379173
   Ti     33.72907397     27.93953604     40.24769823      1.70784211
    O     33.95022012     28.02855680     38.18894590      7.07945397
    O     33.69867744     27.66405803     42.31735999      7.07627224
   Ti     35.64298253     28.23686472     42.56146402      1.41354353
    O     35.79709264     28.13530824     40.55528049      7.12702561
   Ti     37.68641719     26.04055314     38.02305382      1.39708409
    O     42.33078195     30.01545578     40.21946867      7.33355192
   Ti     37.88459691     27.86676379     40.49355217      1.75761648
    O     37.95206352     27.98157209     38.40808846      7.08259799
    O     37.51167808     27.50432185     42.50677768      7.33230338
    O     39.87391567     27.82395825     40.88744934      7.64966334
    O     25.94804376     34.07024198     40.45078635      7.16369169
   Ti     26.26703045     30.28696096     38.15973383      1.37578448
    O     30.47828149     34.06410701     40.18933019      7.16255064
   Ti     26.38158292     32.02956319     40.68475317      1.51885075
    O     25.64278145     32.09978232     38.74039008      7.04833336
    O     26.20032117     31.86010630     42.68537660      7.31601840
   Ti     28.14640292     32.32956936     43.13371156      1.69608155
    O     28.24778164     32.61551644     41.07894558      7.06859347
    O     28.18607625     30.92648666     44.56018098      7.61437016
   Ti     30.06925929     30.15318107     37.98941165      1.73456010
    O     34.07832845     34.06587699     40.15382707      7.15562914
   Ti     30.16393758     32.07781430     40.61473597      1.73426879
    O     30.35902546     32.09574544     38.53691908      7.12616141
   Ti     32.27287944     30.11052082     45.50459882      1.06314213
    O     30.12433775     31.97118290     42.71587660      7.14139054
   Ti     32.14627234     32.04720686     43.12071031      1.70596345
    O     32.14096502     31.86473820     41.04782393      7.12105746
    O     32.47541016     32.06339783     45.18165205      7.05899540
    O     32.03879851     30.00661220     43.51684168      6.99419667
   Ti     34.07486318     30.07803894     37.97903013      1.72561181
    O     38.05548222     34.06222511     40.26680946      7.16700057
   Ti     34.11603998     32.02641464     40.54240613      1.70763383
    O     34.11607716     32.06619062     38.46107893      7.12239091
    O     34.03018021     29.43189561     46.21629846      6.63897981
   Ti     35.76481336     30.11057263     45.44015005      1.06242990
    O     34.13502535     32.22500162     42.63869676      7.14888921
   Ti     36.14110621     32.04616609     43.06757734      1.69774747
    O     36.11579944     31.92059444     40.98656119      7.12636950
    O     36.04157947     32.06521069     45.16713299      7.06688213
    O     35.88612808     30.01353239     43.44241639      6.99090968
   Ti     38.09234418     30.01266479     38.10481164      1.71253834
    O     42.36601057     34.05347787     40.39030278      7.13417003
   Ti     38.12494348     31.99288415     40.58851226      1.70207057
    O     38.10250885     32.02829225     38.51398641      7.13073563
    O     38.16455248     31.98657747     42.67330363      7.13684635
   Ti     40.19430418     32.23831896     42.99658658      1.69587709
    O     40.15403696     32.04709180     40.94271070      7.06702284
    O     40.21654515     30.81290067     44.38163392      7.59613416
   Ti     42.07374494     30.25542811     38.21185476      1.40341396
   Ti     42.13905991     32.01438029     40.65979616      1.57925474
    O     42.67162632     32.12188104     38.62504085      7.05681609
    O     42.22579289     32.08190520     42.68155944      7.33682760
    O     26.98943422     38.06671028     40.09957216      6.49920306
   Ti     26.14820469     34.07253919     38.36144938      1.55633264
    O     29.88232096     38.00525978     40.08213831      7.13543292
   Ti     26.40843534     36.10431894     40.69025462      1.51921434
    O     25.66391200     36.04756099     38.74775666      7.04797921
    O     26.22566187     36.32943288     42.68471631      7.31336080
   Ti     28.15873226     35.83376733     43.15232343      1.69486553
    O     28.25837520     35.47881357     41.10656183      7.06867428
    O     28.08553927     34.07735607     44.07269136      7.21523533
   Ti     30.15788955     34.06407706     38.11056394      1.74614131
    O     33.93127342     38.12322270     40.06492982      7.17053576
   Ti     30.15646442     36.05562047     40.61986296      1.73236519
    O     30.30366907     36.03543431     38.53941996      7.12642233
    O     30.90814457     34.00356743     46.84850718      7.57881115
   Ti     32.39393010     34.07495091     45.54968859      1.68535289
    O     30.12216800     36.24702095     42.71613249      7.13824956
   Ti     32.13985547     36.09623113     43.11945863      1.70615596
    O     32.14115887     36.19820098     41.04206833      7.12179414
    O     32.32384488     36.09398378     45.19882773      7.06209437
    O     31.98927050     34.07254765     43.52859067      7.11747023
   Ti     34.12418752     34.06672838     38.05195521      1.73948524
    O     38.10200303     38.18292085     40.18787626      7.17507229
   Ti     34.12372379     36.10496907     40.55042771      1.70684122
    O     34.15762536     36.06780497     38.46911379      7.12344838
    O     34.19054824     34.13670394     46.43047393      7.25101158
   Ti     35.96102164     34.08343174     45.51030024      1.68418152
    O     34.13998235     35.95100324     42.65131831      7.15257082
   Ti     36.15528857     36.10647765     43.06269827      1.69974927
    O     36.12698346     36.20187184     40.98089129      7.12650649
    O     36.10729707     36.10077197     45.15492276      7.06617067
    O     36.22151529     34.07641765     43.46502447      7.12115179
   Ti     38.10456440     34.06010050     38.18122869      1.72016200
    O     42.34254492     38.09252981     40.21166159      7.33342778
   Ti     38.13676107     36.13246149     40.58208510      1.70138808
    O     38.10068090     36.09235740     38.50803475      7.12954229
    O     37.44826701     34.06561195     46.81719804      7.58708728
    O     38.17904514     36.14088725     42.66658166      7.13717657
   Ti     40.20632114     35.87516567     42.99207033      1.69561045
    O     40.16600022     36.06540340     40.93674182      7.06802678
    O     40.14539489     34.05801288     43.81423227      7.24002160
   Ti     42.12509619     34.05425798     38.31979999      1.61015126
   Ti     42.15150261     36.09448073     40.65672284      1.57909401
    O     42.68338772     35.98177929     38.62236428      7.05603046
    O     42.23825112     36.02630652     42.67817897      7.33637768
   Ti     26.28287025     37.86425317     38.17252233      1.37122459
    O     29.38105235     42.01544592     39.92574205      7.34690921
    O     27.52940200     39.30975681     40.71344832      6.70586259
    O     28.18818194     37.20326806     44.61362146      7.61721770
   Ti     30.07913925     37.98813978     37.99438090      1.73408067
    O     33.81977798     42.22276574     39.91647132      7.34017914
   Ti     29.55027017     40.00048969     40.39583367      1.67723392
    O     29.69084679     39.96369994     38.29936103      7.07575582
   Ti     32.39053365     38.06517777     45.46758105      1.13675867
    O     29.83342245     40.27999091     42.41625436      7.32271270
   Ti     31.80761220     39.85299780     42.50126506      1.38502744
    O     31.70089038     39.98896950     40.48443331      7.13565715
    O     32.16650790     38.14536939     43.47686019      6.99550929
   Ti     34.08373179     38.05076048     37.98186763      1.72622952
    O     37.91290245     42.28511199     39.99960362      7.34633797
   Ti     33.76817978     40.19584509     40.24423492      1.70907305
    O     33.96968764     40.09878719     38.18450553      7.07653198
    O     34.12796314     38.68112134     46.18064800      7.18330082
   Ti     35.84477636     38.05751300     45.42272085      1.13783544
    O     33.74311451     40.50211505     42.31001351      7.07811255
   Ti     35.68582843     39.92558380     42.55468000      1.41689287
    O     35.82629939     39.97825987     40.54645299      7.12165299
    O     35.93373779     38.14482877     43.42262204      6.99034440
   Ti     38.10222779     38.10589276     38.09543012      1.71330559
   Ti     37.91181019     40.26378930     40.47087472      1.75685525
    O     37.97138222     40.13925802     38.38738237      7.08060874
    O     37.54667213     40.67455202     42.47658342      7.33171885
    O     39.90063746     40.29074957     40.86470307      7.64906738
    O     40.23587523     37.29328971     44.38444074      7.59625477
   Ti     42.08287900     37.84727676     38.20520836      1.40338370
   Ti     30.02739442     41.90616381     37.99498145      1.39390988
   Ti     33.89611242     42.07217483     37.89668547      1.60580187
   Ti     37.71769466     42.07750561     37.99224008      1.39906411
   Be     34.04005828     28.69289915     47.35190483      0.69602914
