  272
Geometry Step: 61
    O     28.09365518     28.04659711     35.33867817      7.64661369
    O     34.17183410     30.82260800     29.29177844      7.59410656
    O     29.84003189     25.94500053     35.97213180      7.33138158
   Ti     31.85222367     26.06967328     35.55760828      1.57500878
    O     31.88710104     25.66927529     37.62464117      7.06449443
    O     30.77821376     27.97034272     31.77662716      7.59904697
   Ti     32.21262440     27.95499244     33.15593383      1.69475999
    O     32.10940983     28.02555420     35.21106625      7.06158316
    O     31.92955991     25.94471477     33.53019660      7.34358852
    O     33.86973855     25.70972413     35.85384251      7.13279401
   Ti     35.90276497     26.01237474     35.57947459      1.57965452
    O     35.79806571     25.50496872     37.62108564      7.05959606
    O     34.02323213     27.95907395     32.31978632      7.23732675
   Ti     35.80668279     27.94800010     33.21200076      1.69631158
    O     35.94094332     27.99377898     35.26707269      7.06778656
    O     35.88185803     25.91204287     33.55644122      7.34136140
    O     37.89699642     25.76066777     36.01653830      7.33650986
    O     37.28795267     27.86578806     31.89173791      7.59430606
    O     40.20824300     27.94382169     35.46373871      7.64417094
    O     29.64980416     34.06803355     29.82273135      7.18469440
    O     25.99140645     29.80933028     36.22151114      7.32878268
   Ti     27.94331433     30.05509781     35.57838598      1.76196278
    O     28.13130372     30.63782136     37.56959606      7.07713880
   Ti     28.16398204     32.21148374     33.39449815      1.43203944
    O     28.33070857     32.10847824     35.38511424      7.09375140
    O     27.44723428     30.34754183     33.59243991      7.31523884
    O     34.08793845     34.06387829     29.77247638      7.23738943
   Ti     30.15612559     32.32422878     30.60686391      1.13566038
    O     30.02207744     29.96597091     35.90166522      7.18033713
   Ti     32.05951112     30.05123250     35.52166550      1.71671268
    O     32.06372368     30.03858673     37.59662166      7.12052256
    O     29.99644357     32.17178741     32.60029295      6.99278707
   Ti     32.03477087     32.03361747     33.03701680      1.69040138
    O     32.10089658     32.05565864     30.94878197      7.06071461
    O     31.98624933     32.06100253     35.11768490      7.12648691
    O     32.04252143     30.00131399     33.43824114      7.14122406
    O     38.71525683     34.06080611     30.06788449      7.18494422
   Ti     34.11181659     32.27359292     30.64729691      1.68346375
    O     34.09901524     30.15369869     35.90152953      7.15892612
   Ti     36.15170945     30.02513465     35.58502059      1.70456726
    O     36.09164020     30.06401118     37.66135378      7.12457624
    O     34.08085127     32.04484411     32.69772285      7.12393635
   Ti     36.11240823     32.02422740     33.11281454      1.69026744
    O     36.12098972     32.15043912     31.02555076      7.06264346
    O     36.24730959     32.04119110     35.18997389      7.13357501
    O     36.07443299     29.98556194     33.50189844      7.14286206
   Ti     38.08595330     32.31634101     30.75627377      1.13610490
    O     38.18014573     29.90029047     36.01873099      7.17081481
   Ti     40.26547964     29.94622659     35.75501565      1.76126385
    O     40.12623667     30.01581617     37.84052329      7.07972186
    O     38.16325313     32.08129813     32.74668597      6.99086867
   Ti     39.94911989     32.13768840     33.62974657      1.42169317
    O     39.98406038     32.02979661     35.64061372      7.11085856
    O     40.63235315     30.25333495     33.73481713      7.32694534
    O     42.28305934     29.93586333     36.22960116      7.34035551
    O     25.94936334     34.08383558     36.33311993      7.34204712
   Ti     27.94544795     34.06995679     35.83382425      1.70879310
    O     28.10647406     34.04783336     37.91157985      7.07973412
   Ti     28.17056708     35.92663410     33.39804778      1.43464685
    O     28.34675385     36.03415964     35.38779200      7.09440882
    O     27.43772452     34.07084822     33.76690513      7.07067735
    O     34.17908339     37.30619835     29.29046524      7.59416638
   Ti     30.15900766     35.81281367     30.60262773      1.13563935
    O     30.05849781     34.06187829     36.03424626      7.18621402
   Ti     32.08423173     34.06598667     35.53523092      1.70770247
    O     32.13832545     34.10340808     37.60893861      7.12585454
    O     29.99929277     35.96633438     32.59581202      6.99232235
   Ti     32.03703135     36.09968609     33.03366078      1.69082706
    O     32.10415015     36.07817651     30.94545571      7.06075240
    O     31.98204698     36.07288191     35.11367911      7.12562568
    O     32.10536470     34.06687960     33.43242280      7.16118016
   Ti     34.11471277     35.85491976     30.64553223      1.68354549
    O     34.12776884     34.06001084     35.94596297      7.16543533
   Ti     36.17738187     34.06280428     35.59528551      1.70684939
    O     36.12483069     34.04941848     37.67593227      7.12120578
    O     34.08317569     36.08208105     32.69594194      7.12375918
   Ti     36.11456123     36.09664253     33.11166949      1.69061312
    O     36.12400659     35.97260838     31.02469104      7.06244525
    O     36.24268880     36.08250068     35.18945752      7.13321928
    O     36.08081450     34.06070012     33.50915762      7.15509859
   Ti     38.08898025     35.80616047     30.75640541      1.13633447
    O     38.19525986     34.06351848     36.09820388      7.17459656
   Ti     40.28046804     34.05887981     35.93087483      1.71886398
    O     40.15337225     34.05808249     37.99670845      7.07317302
    O     38.16580397     36.03639945     32.74741861      6.99099978
   Ti     39.95434979     35.97561207     33.62495818      1.42088992
    O     39.99462616     36.08639022     35.63571139      7.10884428
    O     40.59795656     34.05584776     33.84938415      7.07162616
    O     42.29868728     34.05267331     36.30122597      7.34037718
    O     25.99981165     38.33174161     36.22164996      7.33051654
   Ti     27.95132813     38.08459143     35.57562566      1.76320245
    O     28.13683091     37.52126770     37.57061516      7.07769520
    O     28.09587496     40.08835563     35.30737684      7.64619620
    O     27.44111277     37.78477738     33.59351969      7.31528034
    O     30.02953511     38.18385270     35.90633201      7.18116938
   Ti     32.06514360     38.07635035     35.52266785      1.71716805
    O     32.07329579     38.04826366     37.59757954      7.11835436
    O     30.77739369     40.16356270     31.78593854      7.59918447
   Ti     32.21904189     40.17712926     33.15787213      1.69471533
    O     32.12537513     40.10623511     35.21381921      7.06370587
    O     32.04781157     38.13109551     33.43912603      7.14134682
    O     34.10557244     37.97564811     35.89861167      7.15952327
   Ti     36.15814865     38.10135235     35.57830037      1.70457508
    O     36.10145284     38.07201542     37.65481519      7.12517181
    O     34.02590959     40.16660095     32.31356112      7.23734316
   Ti     35.81281442     40.17236032     33.19881171      1.69644769
    O     35.95446883     40.13008116     35.25372107      7.06715383
    O     36.07971988     38.13592330     33.49514623      7.14266716
    O     38.18885317     38.21066972     36.00707469      7.17101780
   Ti     40.27506411     38.16656028     35.74711208      1.76240099
    O     40.13753069     38.08952101     37.83186098      7.07959066
    O     37.28801528     40.24813550     31.87130567      7.59438654
    O     40.21887075     40.16928873     35.46189396      7.64400094
    O     40.63957234     37.85968604     33.72669839      7.32698820
    O     42.29322341     38.17457107     36.22008254      7.34016207
    O     29.85929733     42.18590147     35.98623001      7.33125630
   Ti     31.86947750     42.06276130     35.55930860      1.57477847
    O     31.91821725     42.46924820     37.62500010      7.06463744
    O     31.93886761     42.18764736     33.53221018      7.34309659
    O     33.88995563     42.42077353     35.84231821      7.13251334
   Ti     35.92106365     42.11330732     35.55941138      1.57964723
    O     35.82861623     42.61010515     37.60325888      7.05962960
    O     35.89332135     42.20881632     33.53598619      7.34133360
    O     37.91758419     42.36308517     35.98538960      7.33628491
    O     29.34607854     26.12473790     39.91619457      7.34730105
    O     33.77169859     25.91109523     39.93411321      7.33985183
    O     37.86752248     25.83926128     40.03673665      7.34660045
    O     26.93929429     30.06113927     40.09871329      6.49751099
    O     29.82476604     30.13905832     40.07477471      7.13569819
    O     27.49133521     28.81747933     40.70072350      6.70693884
   Ti     29.99339006     26.22731422     37.98504288      1.39235239
    O     33.93513687     30.00481001     40.07002257      7.17011305
   Ti     29.51930671     28.13920798     40.38796301      1.67694837
    O     29.67843541     28.17445852     38.29369028      7.07675702
    O     29.79350072     27.84503188     42.40734855      7.32282903
   Ti     31.76263968     28.29065378     42.51152077      1.38458415
    O     31.66887196     28.16855243     40.49234848      7.13451287
   Ti     33.86379914     26.05183599     37.91285808      1.60332127
    O     38.08786803     29.93915507     40.20523729      7.17457851
   Ti     33.73355477     27.93748789     40.25849509      1.70818321
    O     33.95683334     28.02639357     38.20007348      7.07939864
    O     33.70370669     27.65936784     42.32699224      7.07740015
   Ti     35.65161203     28.21960192     42.57765559      1.41272492
    O     35.79938931     28.13799251     40.56907107      7.12628863
   Ti     37.68390086     26.03845729     38.02712630      1.39732503
    O     42.32209885     30.01502360     40.22501999      7.33349744
   Ti     37.88543372     27.86238770     40.49949035      1.75743973
    O     37.94466863     27.97955582     38.41479331      7.08173637
    O     37.51514589     27.47476573     42.50902070      7.33268748
    O     39.87407383     27.81819465     40.89490431      7.64935680
    O     25.94226587     34.07147193     40.45058709      7.16344791
   Ti     26.27166051     30.28644474     38.16445572      1.37578051
    O     30.47343631     34.06499028     40.19019032      7.16300526
   Ti     26.38307319     32.03256776     40.68543069      1.51909830
    O     25.64328637     32.09891253     38.74145643      7.04826315
    O     26.19780879     31.84735565     42.68342451      7.31535193
   Ti     28.14168737     32.32103423     43.13874243      1.69563091
    O     28.24550028     32.62735043     41.08657473      7.06876385
    O     28.17363308     30.92381002     44.57156511      7.61494581
   Ti     30.06758268     30.15101882     37.99212386      1.73432477
    O     34.08548801     34.06277386     40.16114157      7.15612891
   Ti     30.15742523     32.07817385     40.61805810      1.73350462
    O     30.35960569     32.09414221     38.54004006      7.12701400
   Ti     32.29193157     30.09243563     45.49861093      1.06175664
    O     30.11742357     31.95268999     42.71890009      7.14066608
   Ti     32.13747489     32.04362095     43.12829811      1.70649333
    O     32.13614694     31.89529624     41.05362792      7.12102107
    O     32.41762446     32.05646044     45.19520464      7.06012648
    O     32.06435092     29.99845946     43.50839359      6.99545717
   Ti     34.07237948     30.07588703     37.98748675      1.72513279
    O     38.05553241     34.05950097     40.27279708      7.16687639
   Ti     34.11491999     32.02388695     40.55451736      1.70704226
    O     34.11184933     32.06319279     38.47255033      7.12242124
    O     34.04981273     29.46021935     46.25388994      6.63973912
   Ti     35.78731919     30.10093787     45.45416969      1.06278909
    O     34.13238211     32.19425763     42.65415848      7.15040535
   Ti     36.14383158     32.02990549     43.07143318      1.69719334
    O     36.11751258     31.91903476     40.98970976      7.12667441
    O     36.07458497     32.05321498     45.17061485      7.06680406
    O     35.90218592     29.99669850     43.45577680      6.99107772
   Ti     38.09003521     30.00991439     38.11177589      1.71236220
    O     42.35999455     34.05478512     40.39596940      7.13437140
   Ti     38.12821272     31.99025255     40.59503324      1.70179174
    O     38.10195837     32.02541050     38.52095422      7.13033670
    O     38.16858563     31.98994383     42.67964944      7.13713382
   Ti     40.19933382     32.23556396     43.00413164      1.69534555
    O     40.15688042     32.05059930     40.94937778      7.06717750
    O     40.22469629     30.81344270     44.39284955      7.59623893
   Ti     42.07099506     30.25749946     38.21721836      1.40359191
   Ti     42.14154558     32.01484996     40.66606591      1.57933044
    O     42.67343384     32.12241174     38.63151465      7.05646288
    O     42.23112709     32.07782322     42.68764107      7.33688304
    O     26.98136189     38.06806519     40.09782590      6.49930401
   Ti     26.14630589     34.07212389     38.36127049      1.55605930
    O     29.88129211     38.00527393     40.08457644      7.13519983
   Ti     26.40305429     36.10529072     40.68956309      1.51909756
    O     25.66181381     36.04744628     38.74566217      7.04814562
    O     26.22117211     36.31568472     42.68609531      7.31411037
   Ti     28.15614390     35.82348993     43.15064831      1.69496361
    O     28.25610210     35.48736854     41.10227556      7.06841823
    O     28.08692274     34.06929195     44.07638380      7.21507723
   Ti     30.15651034     34.06242325     38.11149320      1.74607513
    O     33.93050089     38.12032900     40.06844133      7.17088148
   Ti     30.15846015     36.05612495     40.62310646      1.73272481
    O     30.29352132     36.03423989     38.54190253      7.12679585
    O     30.92548405     34.02720857     46.88097732      7.58065833
   Ti     32.38818024     34.07238700     45.55285877      1.68332833
    O     30.12167640     36.23505433     42.72078427      7.13851563
   Ti     32.13943136     36.09471039     43.12601119      1.70512985
    O     32.14211089     36.19982838     41.04808147      7.12144624
    O     32.32480250     36.09332085     45.20663207      7.06252925
    O     31.98861747     34.06995854     43.53012287      7.11733965
   Ti     34.12296036     34.06233022     38.05773112      1.73869941
    O     38.10358933     38.17929982     40.19234068      7.17488269
   Ti     34.12413315     36.10166438     40.55683555      1.70700398
    O     34.16063251     36.06324031     38.47552197      7.12350345
    O     34.19255075     34.10118607     46.41739986      7.24938715
   Ti     35.97076347     34.07018392     45.51342336      1.68445351
    O     34.13885039     35.93638731     42.65717095      7.15286511
   Ti     36.15401401     36.09069141     43.06857440      1.70055311
    O     36.12593157     36.20809960     40.98767214      7.12606871
    O     36.11589191     36.08717237     45.16001370      7.06556203
    O     36.21307595     34.06137156     43.46715152      7.12033563
   Ti     38.10279500     34.05651252     38.18721911      1.72050099
    O     42.34030905     38.09408983     40.21233904      7.33315074
   Ti     38.13504889     36.12917783     40.58843103      1.70143190
    O     38.09841722     36.08851022     38.51408540      7.12944225
    O     37.45665246     34.06155129     46.82384362      7.58857425
    O     38.17757203     36.11986879     42.67290758      7.13718652
   Ti     40.20706887     35.86971579     42.99593206      1.69647935
    O     40.16489394     36.06760623     40.94275280      7.06774275
    O     40.15353461     34.05440494     43.82342058      7.24019140
   Ti     42.12269258     34.05356991     38.32533558      1.61033101
   Ti     42.15037247     36.09665881     40.65984767      1.57867241
    O     42.68388845     35.98071256     38.62571931      7.05603009
    O     42.23920977     36.02400765     42.68105463      7.33674519
   Ti     26.27761129     37.86484722     38.16920660      1.37060199
    O     29.37812698     42.01561219     39.92796482      7.34686012
    O     27.52458388     39.30997883     40.71099186      6.70638966
    O     28.18381804     37.19979585     44.60516544      7.61684280
   Ti     30.07729855     37.98788654     37.99684379      1.73394942
    O     33.81939426     42.21880589     39.91745361      7.33955310
   Ti     29.54663762     40.00001827     40.39572196      1.67690806
    O     29.69271637     39.96461876     38.29976377      7.07591850
   Ti     32.39619162     38.06519168     45.47068512      1.13585466
    O     29.83009642     40.27172751     42.41704030      7.32324628
   Ti     31.80688874     39.85292482     42.50100851      1.38340934
    O     31.69828949     39.99301701     40.48368803      7.13666935
    O     32.16669457     38.14592250     43.47926337      6.99690912
   Ti     34.08255904     38.04540733     37.98546109      1.72586005
    O     37.90327372     42.28026477     40.00375823      7.34636498
   Ti     33.76679196     40.19268729     40.24428846      1.70916713
    O     33.96183009     40.09425759     38.18392127      7.07700834
    O     34.13646299     38.67147658     46.18627434      7.18463630
   Ti     35.85503414     38.04408269     45.43118887      1.13632119
    O     33.74412645     40.49565966     42.31121053      7.07771525
   Ti     35.68218932     39.90657450     42.55443806      1.41743420
    O     35.82513892     39.97332800     40.54612740      7.12244951
    O     35.93045700     38.12933038     43.43058153      6.99114720
   Ti     38.10134561     38.10129089     38.09978379      1.71332072
   Ti     37.91037186     40.25921341     40.47498167      1.75718437
    O     37.97810601     40.13524885     38.39109158      7.08099082
    O     37.54040271     40.66031982     42.48205674      7.33119280
    O     39.89872080     40.29278863     40.86874380      7.64884976
    O     40.22873342     37.29694088     44.37756607      7.59524600
   Ti     42.08249287     37.84548784     38.20623213      1.40379917
   Ti     30.02769932     41.90796531     37.99825257      1.39377577
   Ti     33.89351061     42.06846434     37.89803984      1.60621003
   Ti     37.71653841     42.07245366     37.99546880      1.39853465
   Be     34.04874296     28.84472637     47.45995901      1.10311745
    H     34.05285401     27.82420385     48.54672897      0.79512806
    H     33.99675734     28.55682528     48.91765281      0.79569611
