  270
Geometry Step: 41
    O     28.08921158     28.04332221     35.33861476      7.64629993
    O     34.16844830     30.82196322     29.28888639      7.59410965
    O     29.84292058     25.94722579     35.96523026      7.33121505
   Ti     31.85522552     26.06804023     35.54994282      1.57511458
    O     31.89026285     25.65557974     37.61491369      7.06493462
    O     30.77997400     27.97062477     31.77196367      7.59900992
   Ti     32.21527095     27.95457429     33.15030362      1.69455667
    O     32.11006380     28.02472805     35.20536900      7.06174924
    O     31.93279112     25.94381590     33.52334121      7.34310514
    O     33.87331519     25.71084555     35.84566633      7.13255670
   Ti     35.90640436     26.01273316     35.57339012      1.57976248
    O     35.80071257     25.50801781     37.61539777      7.05947906
    O     34.02650370     27.95788779     32.31523742      7.23746478
   Ti     35.81125010     27.94784910     33.20488762      1.69618969
    O     35.94652166     27.99391235     35.25973948      7.06763596
    O     35.88809817     25.91198375     33.55007701      7.34163154
    O     37.90015153     25.75706497     36.00972802      7.33632523
    O     37.29175249     27.86661315     31.88367926      7.59431661
    O     40.21493038     27.94445022     35.45670022      7.64409257
    O     29.64148374     34.06735646     29.82493473      7.18473004
    O     25.98851185     29.81054054     36.21511241      7.32892870
   Ti     27.94220054     30.05205605     35.57566758      1.76206927
    O     28.12885715     30.62667552     37.56887300      7.07728949
   Ti     28.16442868     32.21057326     33.39530997      1.43206104
    O     28.32638815     32.10717755     35.38639773      7.09413405
    O     27.44660504     30.34678641     33.59020550      7.31510041
    O     34.09065534     34.06537094     29.76875183      7.23754791
   Ti     30.15385740     32.32341688     30.60482275      1.13560226
    O     30.02199448     29.96573234     35.89606531      7.18039891
   Ti     32.05939075     30.05082823     35.51544123      1.71641419
    O     32.06509955     30.04508573     37.59031746      7.12044766
    O     29.99568645     32.16800947     32.59815233      6.99290312
   Ti     32.03499932     32.03392039     33.03220983      1.69036384
    O     32.10003346     32.06081366     30.94420747      7.06085065
    O     31.98716594     32.06109543     35.11267485      7.12652932
    O     32.04447187     30.00111903     33.43219976      7.14135533
    O     38.71085658     34.06388758     30.06017526      7.18499574
   Ti     34.11170617     32.27457656     30.64281161      1.68325713
    O     34.10033760     30.15267806     35.89040417      7.15928410
   Ti     36.15416231     30.02558398     35.57652372      1.70436820
    O     36.09436075     30.06075343     37.65259177      7.12385482
    O     34.08118604     32.04567778     32.69297756      7.12380010
   Ti     36.11308926     32.02547797     33.10684293      1.69012609
    O     36.12126458     32.14758636     31.01952089      7.06271576
    O     36.24719046     32.04239586     35.18396617      7.13365526
    O     36.07713822     29.98608455     33.49342871      7.14299932
   Ti     38.08598649     32.31873308     30.75090572      1.13605164
    O     38.18356759     29.90386103     36.00794918      7.17070139
   Ti     40.26940889     29.94679666     35.74830170      1.76118601
    O     40.13019486     30.01075690     37.83414401      7.07994838
    O     38.16413759     32.08605694     32.74160031      6.99104455
   Ti     39.94981474     32.14017508     33.62557683      1.42129729
    O     39.99103741     32.03105164     35.63657649      7.11116193
    O     40.63341999     30.25574672     33.72798233      7.32694039
    O     42.28709831     29.93861455     36.22274138      7.34034230
    O     25.94803421     34.08279356     36.33286211      7.34206441
   Ti     27.94363912     34.06998020     35.83185622      1.70896468
    O     28.10644625     34.05603809     37.90935809      7.07970831
   Ti     28.16740954     35.92739951     33.39545967      1.43384099
    O     28.34256930     36.03410725     35.38527608      7.09437333
    O     27.43703037     34.07017941     33.76473897      7.07094151
    O     34.17311756     37.30955644     29.28819273      7.59416235
   Ti     30.15551267     35.81256648     30.60083924      1.13555349
    O     30.05743212     34.06313438     36.02732413      7.18657518
   Ti     32.08412646     34.06653575     35.52876025      1.70756017
    O     32.13867102     34.09798723     37.60178895      7.12557194
    O     29.99656139     35.97039100     32.59380604      6.99261237
   Ti     32.03533008     36.10111979     33.02976609      1.69048921
    O     32.10156468     36.07457499     30.94175582      7.06085021
    O     31.98254645     36.07422385     35.10981959      7.12573855
    O     32.10268325     34.06773285     33.42646017      7.16106064
   Ti     34.11293672     35.85664474     30.64170966      1.68331489
    O     34.12884744     34.06476803     35.93613930      7.16553696
   Ti     36.17969827     34.06461914     35.58811786      1.70636946
    O     36.12695549     34.05339759     37.66853203      7.12090432
    O     34.08178643     36.08423172     32.69191199      7.12379904
   Ti     36.11368750     36.09907443     33.10623533      1.69044501
    O     36.12264037     35.97925339     31.01910673      7.06256627
    O     36.24561791     36.08481622     35.18372374      7.13340434
    O     36.08058473     34.06251816     33.50225471      7.15532644
   Ti     38.08752061     35.80930418     30.75129327      1.13627089
    O     38.19917066     34.06511600     36.08689571      7.17489459
   Ti     40.28576455     34.06043536     35.92522625      1.71877982
    O     40.15746414     34.06306760     37.99045056      7.07325555
    O     38.16518834     36.03745032     32.74253433      6.99122637
   Ti     39.95299661     35.97721392     33.62212825      1.42062948
    O     39.99940369     36.08821466     35.63304955      7.10906075
    O     40.60033828     34.05819957     33.84352325      7.07160507
    O     42.30396420     34.05358740     36.29560275      7.34023211
    O     26.00126961     38.33525833     36.22633162      7.33037399
   Ti     27.95072820     38.08466904     35.57546082      1.76302509
    O     28.13970692     37.51547821     37.56870442      7.07778386
    O     28.09780848     40.08906012     35.31240703      7.64629573
    O     27.43893612     37.78602406     33.59361653      7.31546090
    O     30.02990626     38.18208391     35.90130693      7.18118297
   Ti     32.06584888     38.07809359     35.51770952      1.71696271
    O     32.07456127     38.06255087     37.59264011      7.11836712
    O     30.77430717     40.16645320     31.78441676      7.59908206
   Ti     32.21802383     40.17951937     33.15403665      1.69479704
    O     32.12407742     40.10809456     35.20955373      7.06340095
    O     32.04738409     38.13303299     33.43425877      7.14155991
    O     34.10686373     37.97786728     35.89243321      7.15977970
   Ti     36.16006415     38.10391435     35.57254641      1.70418550
    O     36.10297207     38.07427619     37.64873331      7.12511013
    O     34.02502927     40.16930528     32.30993403      7.23744122
   Ti     35.81245239     40.17526553     33.19423479      1.69636789
    O     35.95421760     40.13266914     35.24894660      7.06714121
    O     36.07953812     38.13856219     33.48949300      7.14277549
    O     38.19125903     38.21469416     36.00073096      7.17107270
   Ti     40.27809235     38.16847509     35.74391374      1.76228947
    O     40.13924848     38.09759697     37.82877859      7.07952654
    O     37.28886113     40.25100946     31.86804299      7.59441346
    O     40.22661571     40.17133042     35.45875484      7.64405910
    O     40.63983502     37.86075128     33.72303501      7.32706392
    O     42.29603811     38.17210896     36.21826592      7.34045418
    O     29.86112586     42.19207628     35.98177482      7.33121289
   Ti     31.87107964     42.06472619     35.55576621      1.57516176
    O     31.91947001     42.46452530     37.62245779      7.06472914
    O     31.93988272     42.19040047     33.52859145      7.34330815
    O     33.89127718     42.42391709     35.83809896      7.13254291
   Ti     35.92230679     42.11611937     35.55407347      1.57941899
    O     35.83104479     42.61853068     37.59742115      7.05986815
    O     35.89348065     42.21192668     33.53120686      7.34103780
    O     37.91978821     42.36200409     35.97925107      7.33632479
    O     29.33859373     26.12417278     39.90415554      7.34708119
    O     33.76668131     25.91438719     39.92534990      7.33918892
    O     37.87781896     25.84086970     40.02879899      7.34627071
    O     26.92049163     30.05582230     40.09546066      6.49651462
    O     29.82373236     30.13929777     40.06909884      7.13647903
    O     27.48456006     28.81635228     40.69447027      6.70694347
   Ti     30.00009128     26.22614315     37.97799202      1.39230077
    O     33.94727075     30.00743133     40.05844981      7.16928511
   Ti     29.51089713     28.13892096     40.37542982      1.67555795
    O     29.67890285     28.17334480     38.28218842      7.07703429
    O     29.79581542     27.84423222     42.39311447      7.32195448
   Ti     31.75954912     28.31021472     42.48880932      1.38662452
    O     31.66319200     28.17309798     40.47114044      7.13532554
   Ti     33.86477479     26.05014023     37.90440563      1.60361920
    O     38.08029290     29.94303434     40.19368186      7.17405802
   Ti     33.72779827     27.94131428     40.24020902      1.70759161
    O     33.94800970     28.02694547     38.18154442      7.08010094
    O     33.69920485     27.67707206     42.31060542      7.07631756
   Ti     35.64614984     28.24272685     42.54882552      1.41471948
    O     35.79903672     28.12866625     40.54299894      7.12864938
   Ti     37.68801081     26.03824585     38.01975928      1.39742024
    O     42.33796947     30.01467800     40.21749494      7.33354159
   Ti     37.88870954     27.86510065     40.48643457      1.75714804
    O     37.95623491     27.97968512     38.40169990      7.08260695
    O     37.50962609     27.49588531     42.49738321      7.33248987
    O     39.87665375     27.82466170     40.88569459      7.64918062
    O     25.93899955     34.07016151     40.45025153      7.16396270
   Ti     26.26554732     30.28703756     38.15851232      1.37640914
    O     30.47164191     34.06715889     40.18309542      7.16259765
   Ti     26.36969168     32.02824739     40.68282236      1.51827639
    O     25.63781127     32.09967636     38.73618658      7.04816104
    O     26.19389536     31.86191967     42.68414987      7.31647089
   Ti     28.14040479     32.33974405     43.12476924      1.69623808
    O     28.23801968     32.61234553     41.06847094      7.06809886
    O     28.19334548     30.93399060     44.54745156      7.61390641
   Ti     30.06907930     30.15075602     37.98655261      1.73398632
    O     34.07744766     34.06949185     40.14903068      7.15620118
   Ti     30.15636989     32.08065218     40.60703273      1.73383505
    O     30.34879585     32.09698944     38.52922600      7.12665440
   Ti     32.32010814     30.10653344     45.47134591      1.12145195
    O     30.12183130     31.99811046     42.70902425      7.14019851
   Ti     32.14291360     32.06472601     43.10699489      1.70732182
    O     32.13680619     31.88580817     41.03450633      7.12179179
    O     32.45936133     32.07030962     45.16937430      7.06064503
    O     32.05957138     30.01900170     43.48387909      6.99632713
   Ti     34.07512874     30.07800627     37.97603429      1.72464349
    O     38.06475311     34.06483779     40.26116592      7.16719716
   Ti     34.11502802     32.02931814     40.53493571      1.70800716
    O     34.11366525     32.06738898     38.45471240      7.12209078
    O     34.04118290     29.39276755     46.16750048      7.08248394
   Ti     35.73865679     30.11313437     45.41164337      1.11797120
    O     34.13377672     32.22709861     42.62985073      7.14816042
   Ti     36.14194662     32.06194436     43.04821097      1.69754146
    O     36.11927112     31.94140717     40.96677279      7.12730692
    O     36.02628465     32.07191448     45.14612002      7.07099868
    O     35.88635118     30.02618815     43.41386528      6.99227157
   Ti     38.09311562     30.01221231     38.10078903      1.71206354
    O     42.37109077     34.05337597     40.38992684      7.13433965
   Ti     38.13200556     31.99481675     40.57947710      1.70157106
    O     38.10893784     32.02904911     38.50567163      7.13084424
    O     38.16715891     32.00780732     42.66406427      7.13676934
   Ti     40.19857430     32.24336556     42.98960399      1.69623771
    O     40.16119656     32.04317219     40.93651658      7.06707840
    O     40.21210465     30.81775725     44.37305115      7.59514023
   Ti     42.07462978     30.25605540     38.21084605      1.40347242
   Ti     42.14709156     32.01360162     40.65854586      1.57905076
    O     42.67499195     32.12205760     38.62309593      7.05670558
    O     42.23121555     32.08475112     42.68023283      7.33699115
    O     26.98885365     38.06556354     40.09952426      6.49958907
   Ti     26.14646704     34.07234421     38.36090387      1.55604146
    O     29.87846247     38.00802755     40.07864483      7.13470813
   Ti     26.40831659     36.10246126     40.69044554      1.51905281
    O     25.66452779     36.04759004     38.74768024      7.04791081
    O     26.22748596     36.33219439     42.68456139      7.31304492
   Ti     28.16089266     35.84012379     43.15212119      1.69494806
    O     28.25892929     35.47900504     41.10727728      7.06869590
    O     28.08003221     34.08349968     44.07125965      7.21512465
   Ti     30.15685788     34.06714163     38.10446515      1.74607656
    O     33.93343728     38.12617192     40.06163623      7.16995787
   Ti     30.15517336     36.05906745     40.61664470      1.73212525
    O     30.30561465     36.03820751     38.53614971      7.12686601
    O     30.91073942     34.02936243     46.84490853      7.57938734
   Ti     32.38632717     34.08494337     45.53325986      1.68494707
    O     30.12067303     36.26752660     42.71160306      7.13820900
   Ti     32.13880594     36.12007403     43.11556291      1.70526886
    O     32.14025745     36.20362629     41.03713782      7.12199591
    O     32.32056768     36.10796626     45.19494426      7.06300647
    O     31.99579635     34.09121874     43.51093298      7.11739515
   Ti     34.12424116     34.06841205     38.04679026      1.73887868
    O     38.10364617     38.18541804     40.18582322      7.17519234
   Ti     34.12361595     36.10824854     40.54712549      1.70673990
    O     34.15778307     36.06949161     38.46571856      7.12368425
    O     34.18515184     34.13057719     46.40786368      7.25010009
   Ti     35.95896900     34.09201644     45.49545338      1.68418704
    O     34.13933399     35.97655597     42.64925295      7.15242325
   Ti     36.15572002     36.12439242     43.05790576      1.69920989
    O     36.12773750     36.20602518     40.97530029      7.12658102
    O     36.10487557     36.11177416     45.14965897      7.06690408
    O     36.21984905     34.09173842     43.45115830      7.12104832
   Ti     38.10598461     34.06227276     38.17578137      1.71974617
    O     42.34424571     38.09225738     40.21169014      7.33350441
   Ti     38.13804701     36.13490558     40.57913310      1.70127521
    O     38.10081484     36.09443386     38.50486082      7.12967692
    O     37.43589914     34.07051455     46.81418582      7.58709288
    O     38.18035866     36.15535387     42.66357511      7.13720833
   Ti     40.20614992     35.87887839     42.99075694      1.69550131
    O     40.16704574     36.06444144     40.93494777      7.06807737
    O     40.14958621     34.06129843     43.81145969      7.23992143
   Ti     42.12674633     34.05420515     38.31956925      1.61006326
   Ti     42.15250719     36.09407764     40.65623797      1.57938244
    O     42.68352820     35.98211280     38.62174354      7.05604291
    O     42.23840755     36.02886564     42.67769217      7.33639536
   Ti     26.28289750     37.86419049     38.17213869      1.37131027
    O     29.37907722     42.01778662     39.92348521      7.34707761
    O     27.52763596     39.30969214     40.71280323      6.70661012
    O     28.18734489     37.20542217     44.61751525      7.61748285
   Ti     30.07877863     37.99090848     37.99200771      1.73427116
    O     33.81972398     42.22530896     39.91403425      7.34056757
   Ti     29.54937185     40.00291533     40.39408918      1.67689907
    O     29.68753362     39.96627710     38.29688548      7.07613870
   Ti     32.39086875     38.07881842     45.47047968      1.13607540
    O     29.82975291     40.28977964     42.41345294      7.32268500
   Ti     31.80654264     39.87787461     42.50538392      1.38445940
    O     31.70039189     39.99611443     40.48735073      7.13560551
    O     32.16448110     38.16900510     43.48010139      6.99585634
   Ti     34.08405326     38.05246790     37.97898584      1.72644949
    O     37.91604269     42.28723096     39.99730505      7.34643388
   Ti     33.76840798     40.19810215     40.24380256      1.70863398
    O     33.97037863     40.10055782     38.18390095      7.07671879
    O     34.12714957     38.69286665     46.18885440      7.18400329
   Ti     35.84387167     38.06825350     45.42903980      1.13597320
    O     33.74393615     40.51784408     42.30786960      7.07821365
   Ti     35.68551568     39.94099787     42.55743523      1.41685118
    O     35.82629760     39.98270793     40.54880706      7.12153449
    O     35.93297231     38.16149292     43.42873895      6.99090075
   Ti     38.10273574     38.10796430     38.09350798      1.71350476
   Ti     37.91200034     40.26628251     40.47056157      1.75636425
    O     37.97113093     40.14110012     38.38683374      7.08076883
    O     37.54833730     40.68391612     42.47528265      7.33170420
    O     39.90157116     40.29056840     40.86229656      7.64928650
    O     40.23814085     37.29424110     44.38631231      7.59665433
   Ti     42.08325188     37.84780441     38.20524895      1.40329341
   Ti     30.02696933     41.90849857     37.99328298      1.39379310
   Ti     33.89683193     42.07373937     37.89468796      1.60592170
   Ti     37.71832790     42.07919550     37.99021971      1.39899118
   Ca     34.05442606     28.07279065     48.26283421      0.13103046
