  272
Geometry Step: 77
    O     28.09230749     28.04499560     35.33799465      7.64625797
    O     34.17363818     30.82078372     29.28815250      7.59406906
    O     29.83991622     25.93929667     35.96457278      7.33146915
   Ti     31.85176618     26.06991433     35.54928619      1.57488971
    O     31.88688678     25.68514972     37.61917144      7.06488565
    O     30.77457179     27.96960870     31.77188162      7.59900116
   Ti     32.21097045     27.95623101     33.14909651      1.69478790
    O     32.10709324     28.02633812     35.20423247      7.06149019
    O     31.93007854     25.94552268     33.52195910      7.34363530
    O     33.86910959     25.70276770     35.84364616      7.13220497
   Ti     35.90103938     26.01122424     35.56674829      1.57966740
    O     35.80147809     25.51615806     37.61151406      7.05959841
    O     34.02115478     27.96165692     32.31175628      7.23754438
   Ti     35.80495881     27.94893771     33.20345801      1.69645065
    O     35.94119432     27.99305268     35.25838934      7.06767365
    O     35.87631253     25.91241957     33.54322989      7.34153354
    O     37.89584181     25.75533085     35.99933076      7.33648995
    O     37.28775314     27.86494445     31.88505758      7.59428474
    O     40.21008588     27.94477949     35.46048650      7.64403410
    O     29.65147192     34.06869105     29.81695304      7.18466640
    O     25.98679827     29.81437169     36.20943371      7.32882337
   Ti     27.94088574     30.05397128     35.57118205      1.76211292
    O     28.12669532     30.63083098     37.56400716      7.07742557
   Ti     28.16409432     32.21179798     33.38977580      1.43154489
    O     28.32077930     32.10983886     35.38133583      7.09418994
    O     27.45154668     30.34564638     33.58399893      7.31519727
    O     34.08645665     34.06390044     29.76739123      7.23748027
   Ti     30.15603298     32.32468954     30.60167288      1.13570937
    O     30.02075704     29.97103519     35.89167598      7.18043176
   Ti     32.05878130     30.05262745     35.51369034      1.71667275
    O     32.06316340     30.04742823     37.58833237      7.11989208
    O     29.99640171     32.17347975     32.59517311      6.99270185
   Ti     32.03472235     32.03532083     33.03088255      1.69051327
    O     32.10080103     32.05476627     30.94264646      7.06076651
    O     31.98654076     32.06312634     35.11141963      7.12677053
    O     32.04104386     30.00268551     33.43074011      7.14107812
    O     38.72014659     34.05962966     30.06716357      7.18489862
   Ti     34.11188141     32.27341903     30.64178984      1.68345150
    O     34.09878441     30.15527687     35.89072285      7.15894390
   Ti     36.15210437     30.02517565     35.57680127      1.70414073
    O     36.09199749     30.06979588     37.65288160      7.12461051
    O     34.08075152     32.04593074     32.69209929      7.12364210
   Ti     36.11226185     32.02553920     33.10706502      1.69030665
    O     36.12138126     32.15357941     31.01996457      7.06270145
    O     36.24529602     32.04202043     35.18424583      7.13392838
    O     36.07437599     29.98627440     33.49397267      7.14288728
   Ti     38.08686363     32.31521151     30.75179817      1.13622803
    O     38.18136382     29.90454120     36.00837795      7.17084314
   Ti     40.26766662     29.94750192     35.74901842      1.76124198
    O     40.12782216     30.02018551     37.83405222      7.07951310
    O     38.16343793     32.07914101     32.74207165      6.99090694
   Ti     39.94980384     32.13836979     33.62405323      1.42150353
    O     39.98709718     32.03135923     35.63498290      7.11099438
    O     40.63410972     30.25435046     33.72897451      7.32683293
    O     42.28540393     29.93759532     36.22334626      7.34032031
    O     25.94510221     34.08738522     36.32237094      7.34231661
   Ti     27.94212350     34.07371217     35.82487869      1.70887561
    O     28.10266230     34.05915206     37.90224677      7.07980641
   Ti     28.17029655     35.93039236     33.39045502      1.43430104
    O     28.34025667     36.03898341     35.38081851      7.09450030
    O     27.43945699     34.07319039     33.75694957      7.07098924
    O     34.18212759     37.30696838     29.28561948      7.59414240
   Ti     30.15978397     35.81389473     30.59640348      1.13565872
    O     30.05570385     34.06515825     36.02336008      7.18633467
   Ti     32.08314638     34.06868514     35.52819895      1.70718879
    O     32.13599755     34.10767535     37.60187672      7.12573189
    O     29.99958000     35.96872678     32.58946668      6.99231287
   Ti     32.03731549     36.10221567     33.02701554      1.69068681
    O     32.10484918     36.08060977     30.93876192      7.06080511
    O     31.98148435     36.07601053     35.10695944      7.12567220
    O     32.10441994     34.06903924     33.42547795      7.16135437
   Ti     34.11541187     35.85516552     30.63998148      1.68353689
    O     34.12694193     34.06518014     35.93888513      7.16514159
   Ti     36.17700389     34.06448867     35.58934758      1.70647314
    O     36.12390355     34.05646301     37.66989783      7.12126224
    O     34.08358511     36.08319692     32.69016028      7.12362593
   Ti     36.11496174     36.09827412     33.10592355      1.69045638
    O     36.12492023     35.96979190     31.01919845      7.06249999
    O     36.24138896     36.08469738     35.18379635      7.13352285
    O     36.08295377     34.06211061     33.50330126      7.15506764
   Ti     38.09019794     35.80513511     30.75196047      1.13634676
    O     38.19537467     34.06565919     36.09066702      7.17437230
   Ti     40.28075532     34.06084241     35.92409279      1.71896705
    O     40.15315298     34.06551802     37.98976147      7.07320826
    O     38.16643733     36.03906504     32.74256396      6.99104384
   Ti     39.95567091     35.97769928     33.61869317      1.42067903
    O     39.99698333     36.08871089     35.62942256      7.10885070
    O     40.59746795     34.05715493     33.84256573      7.07177997
    O     42.29925119     34.05439941     36.29321256      7.34027387
    O     25.99709933     38.33358055     36.21140983      7.33068485
   Ti     27.94944465     38.09041601     35.56584385      1.76320590
    O     28.13546601     37.53410814     37.56233430      7.07763032
    O     28.09106308     40.09440573     35.29859103      7.64611622
    O     27.44233676     37.78961005     33.58292094      7.31558087
    O     30.02811344     38.18866801     35.89638316      7.18156960
   Ti     32.06403375     38.07997658     35.51408522      1.71720433
    O     32.07178921     38.06024119     37.58882084      7.11805616
    O     30.77616645     40.16733298     31.77891178      7.59912146
   Ti     32.21902264     40.18063952     33.14959935      1.69445957
    O     32.12398071     40.10981813     35.20532550      7.06372367
    O     32.04822308     38.13424232     33.43065546      7.14148281
    O     34.10442850     37.98150457     35.89160522      7.15954792
   Ti     36.15722211     38.10417815     35.57162195      1.70447966
    O     36.09970671     38.08186540     37.64821345      7.12527402
    O     34.02647060     40.16902947     32.30604810      7.23762403
   Ti     35.81351300     40.17456481     33.19147345      1.69621879
    O     35.95573248     40.13291483     35.24631296      7.06717846
    O     36.07973904     38.13796061     33.48841779      7.14278396
    O     38.18810943     38.21278185     35.99998522      7.17088064
   Ti     40.27435319     38.16923185     35.74065785      1.76235893
    O     40.13639476     38.09638717     37.82556667      7.07976116
    O     37.29039983     40.25034443     31.86584366      7.59431137
    O     40.21981838     40.17193872     35.45487683      7.64407727
    O     40.63958273     37.86232871     33.72033051      7.32716814
    O     42.29268417     38.17778044     36.21323071      7.34016168
    O     29.85939783     42.19107106     35.97775014      7.33101219
   Ti     31.86942797     42.06622260     35.55253978      1.57501096
    O     31.91793471     42.47831710     37.61728286      7.06449430
    O     31.94001383     42.19126421     33.52538469      7.34328279
    O     33.88956467     42.42368909     35.83612609      7.13256120
   Ti     35.92017072     42.11603854     35.55263624      1.57979537
    O     35.82824786     42.61707271     37.59620925      7.05975852
    O     35.89278341     42.21115582     33.52963131      7.34122438
    O     37.91681715     42.36757401     35.97730020      7.33629008
    O     29.34801699     26.13187219     39.90878002      7.34714521
    O     33.77817988     25.91696240     39.91954559      7.33927294
    O     37.87392847     25.84555919     40.01836168      7.34647577
    O     26.92056870     30.06237124     40.09079559      6.49687596
    O     29.83753780     30.14382572     40.06532224      7.13483683
    O     27.49111335     28.82675236     40.69221744      6.70806989
   Ti     29.99040352     26.23534800     37.97589399      1.39246859
    O     33.92914193     30.01227233     40.05843846      7.16989807
   Ti     29.51803665     28.14706034     40.37749004      1.67547187
    O     29.66701266     28.18159351     38.28158632      7.07727090
    O     29.79712931     27.87197626     42.39939220      7.32292050
   Ti     31.76905977     28.30616937     42.49515124      1.38365487
    O     31.66996790     28.16733348     40.47659789      7.13612936
   Ti     33.86619077     26.05927558     37.89929552      1.60408018
    O     38.08705688     29.94567606     40.19416174      7.17529090
   Ti     33.73547302     27.94333770     40.24224886      1.70781308
    O     33.95773271     28.03420179     38.18352539      7.07938898
    O     33.70711512     27.66197293     42.31134495      7.07759896
   Ti     35.65147095     28.23098941     42.55952217      1.41489057
    O     35.80025430     28.14933114     40.55224274      7.12537597
   Ti     37.68950741     26.04681059     38.00888186      1.39747979
    O     42.33311420     30.02103863     40.21817353      7.33351673
   Ti     37.88564927     27.86768575     40.48521029      1.75727241
    O     37.94790541     27.98735569     38.40042595      7.08188860
    O     37.51072924     27.47542812     42.49329505      7.33265028
    O     39.87309522     27.83100980     40.88469317      7.64899852
    O     25.94335785     34.07879876     40.43975594      7.16324651
   Ti     26.26309681     30.29198134     38.15305278      1.37530892
    O     30.46626314     34.07243280     40.17873545      7.16350890
   Ti     26.37907364     32.03884876     40.67381008      1.51928684
    O     25.63904774     32.10633620     38.72990138      7.04855402
    O     26.19395623     31.87210009     42.67390038      7.31652035
   Ti     28.14334600     32.33130559     43.12416955      1.69560474
    O     28.24501077     32.62367104     41.07100956      7.06761245
    O     28.16629055     30.92845386     44.55125803      7.61464052
   Ti     30.06712972     30.15663943     37.98185999      1.73439306
    O     34.09135055     34.07094515     40.15179651      7.15649521
   Ti     30.15998755     32.08464983     40.60698049      1.73407059
    O     30.34714590     32.10215699     38.52732150      7.12722518
   Ti     32.36756777     30.09636218     45.48055172      1.11912215
    O     30.11912800     31.95451063     42.70850574      7.14096186
   Ti     32.13925989     32.05357906     43.11937685      1.70536145
    O     32.13831113     31.90931112     41.04387838      7.12086565
    O     32.44670366     32.06626685     45.18433486      7.06189196
    O     32.09468527     30.00683740     43.49589435      6.99568123
   Ti     34.07230423     30.08405947     37.97651331      1.72530114
    O     38.05746253     34.06592830     40.26478532      7.16677349
   Ti     34.11634220     32.03072857     40.54078644      1.70774904
    O     34.11300219     32.07145287     38.45997972      7.12196285
    O     34.08985418     29.39220525     46.19063725      7.08338160
   Ti     35.79123929     30.09774256     45.43579793      1.12165044
    O     34.13280273     32.20222565     42.63972945      7.14936684
   Ti     36.13924436     32.04086281     43.06256784      1.69825338
    O     36.11689765     31.91874968     40.98129661      7.12658567
    O     36.00711824     32.06100148     45.15873807      7.06821954
    O     35.92124435     30.00485317     43.43766704      6.99095288
   Ti     38.09109846     30.01830989     38.10103414      1.71257973
    O     42.36231733     34.05976655     40.38696432      7.13392289
   Ti     38.12717100     31.99676927     40.58660071      1.70151742
    O     38.10194256     32.03322484     38.51217998      7.13050600
    O     38.16505678     32.00609278     42.67138953      7.13777590
   Ti     40.19685908     32.24545668     42.99436580      1.69574239
    O     40.15636982     32.05034937     40.94085023      7.06701673
    O     40.21955996     30.82056706     44.37928431      7.59556049
   Ti     42.07292016     30.25941519     38.21084191      1.40353586
   Ti     42.14140564     32.02025463     40.65770094      1.57895985
    O     42.66969831     32.12682619     38.62178981      7.05695495
    O     42.22878063     32.09089277     42.67956491      7.33716268
    O     26.98750883     38.07380430     40.08775246      6.49999795
   Ti     26.14219468     34.08001815     38.35056863      1.55601121
    O     29.88681481     38.01626609     40.07660710      7.13501389
   Ti     26.40417103     36.11266043     40.67952453      1.51914745
    O     25.66062499     36.05609533     38.73638230      7.04818925
    O     26.22296615     36.33722846     42.67458256      7.31377755
   Ti     28.15563440     35.83987831     43.14303273      1.69464895
    O     28.25473306     35.48969480     41.09680030      7.06855958
    O     28.09488766     34.08092256     44.05990520      7.21526483
   Ti     30.15318400     34.07187028     38.10052845      1.74621155
    O     33.92239837     38.12839288     40.06089938      7.17008887
   Ti     30.15344444     36.06514363     40.61225493      1.73238389
    O     30.28964339     36.04388325     38.53125818      7.12663762
    O     30.91755505     34.04069165     46.85272692      7.57924103
   Ti     32.39293761     34.08216992     45.54084125      1.68485318
    O     30.11791250     36.26098543     42.70847636      7.13830099
   Ti     32.13565046     36.10752228     43.11381869      1.70438841
    O     32.13920376     36.18446699     41.03472814      7.12178599
    O     32.32771041     36.10357086     45.19317541      7.06287837
    O     31.99351453     34.08141295     43.52015994      7.11668039
   Ti     34.12147566     34.07164579     38.04931407      1.73888465
    O     38.10043156     38.18695896     40.18597374      7.17575178
   Ti     34.12314793     36.11115011     40.54524257      1.70683249
    O     34.15812767     36.07353090     38.46360445      7.12382008
    O     34.18792462     34.13303243     46.42553817      7.25085861
   Ti     35.95676808     34.07956361     45.50277859      1.68604304
    O     34.13737958     35.97569851     42.64725620      7.15284778
   Ti     36.15494470     36.10458084     43.05731576      1.69818943
    O     36.12674000     36.20316742     40.97632665      7.12633805
    O     36.10753622     36.09653874     45.15527570      7.06749721
    O     36.20764262     34.07352838     43.45907074      7.12035897
   Ti     38.10226565     34.06465692     38.17936045      1.72054562
    O     42.34419665     38.09935363     40.20510692      7.33328982
   Ti     38.13732425     36.13607809     40.57893050      1.70122544
    O     38.09716762     36.09672491     38.50508700      7.12899797
    O     37.45902625     34.04708486     46.79212552      7.58697466
    O     38.17894688     36.13417052     42.66336567      7.13717286
   Ti     40.20837234     35.88340709     42.98804530      1.69513888
    O     40.16736378     36.07471635     40.93293923      7.06808948
    O     40.15189516     34.06598265     43.81132252      7.24089301
   Ti     42.12262820     34.05933055     38.31696960      1.61043329
   Ti     42.15281580     36.10162907     40.65156437      1.57875694
    O     42.68432418     35.98657783     38.61674528      7.05625606
    O     42.24013157     36.03809117     42.67305407      7.33645024
   Ti     26.27542551     37.87404160     38.16060315      1.36942833
    O     29.37309293     42.02544759     39.91930380      7.34709401
    O     27.52836648     39.31474415     40.70519622      6.70656821
    O     28.17868085     37.20649077     44.60725354      7.61738345
   Ti     30.07622254     37.99842679     37.98818730      1.73404438
    O     33.82010441     42.22843089     39.91408292      7.34019533
   Ti     29.54862703     40.01068877     40.38873151      1.67698986
    O     29.69749585     39.97590125     38.29334953      7.07579868
   Ti     32.39549967     38.07493985     45.45847964      1.13663990
    O     29.82809860     40.29118023     42.40963084      7.32347643
   Ti     31.80437861     39.87188412     42.49897195      1.38358096
    O     31.69892480     40.00795996     40.48173162      7.13541271
    O     32.15795103     38.15900644     43.46867041      6.99690301
   Ti     34.08057153     38.05700156     37.97820003      1.72609689
    O     37.90378128     42.28915341     39.99561443      7.34632246
   Ti     33.76653493     40.20174501     40.24151150      1.70950747
    O     33.96233948     40.10474849     38.18180078      7.07630210
    O     34.13614354     38.68143291     46.17261004      7.18423632
   Ti     35.85598484     38.05422149     45.42178886      1.13771727
    O     33.74453785     40.50490364     42.30844792      7.07775781
   Ti     35.68434804     39.92214718     42.55141722      1.41763490
    O     35.82369467     39.97678337     40.54288659      7.12152661
    O     35.95060193     38.14443878     43.42205480      6.99102579
   Ti     38.09971322     38.10970429     38.09295435      1.71324662
   Ti     37.90802882     40.26835348     40.46871389      1.75693596
    O     37.97460109     40.14295851     38.38564213      7.08029788
    O     37.53989426     40.68153111     42.47365497      7.33121446
    O     39.89569124     40.29812178     40.86543726      7.64870250
    O     40.23170519     37.31025363     44.37185517      7.59613120
   Ti     42.08138235     37.85145341     38.19960564      1.40391764
   Ti     30.02662353     41.92006970     37.99072631      1.39363816
   Ti     33.89283592     42.07840774     37.89388710      1.60562065
   Ti     37.71624737     42.07996097     37.98776344      1.39886136
   Ca     34.09684508     27.68509606     47.98737152      0.20311659
    H     34.04235567     28.50802004     50.49887274      0.96324136
    H     34.06264936     27.76069031     50.63343770      0.96348903
