    2
Geometry Step: 2
    H      0.00000000      0.00000000     -0.00472008      1.00000000
    H      0.00000000      0.00000000      0.74472008      1.00000000
