  272
Geometry Step: 59
    O     28.09042559     28.04473065     35.33187722      7.64624671
    O     34.17279814     30.82199201     29.28863261      7.59411778
    O     29.83819985     25.93988391     35.96565402      7.33121457
   Ti     31.85056086     26.06837662     35.55071177      1.57540616
    O     31.88717598     25.67244016     37.61823057      7.06447505
    O     30.77642355     27.96742967     31.77142731      7.59903640
   Ti     32.21105959     27.95363616     33.15048089      1.69474217
    O     32.10719170     28.02444672     35.20530154      7.06129981
    O     31.92882319     25.94294023     33.52389874      7.34343460
    O     33.86737559     25.70466903     35.84455943      7.13190888
   Ti     35.89980939     26.01007909     35.57052025      1.58040003
    O     35.79899169     25.50535404     37.61304631      7.05992887
    O     34.02225782     27.95833500     32.31612068      7.23734006
   Ti     35.80643958     27.94721104     33.20686781      1.69649993
    O     35.94224374     27.99168049     35.26175609      7.06760602
    O     35.87810840     25.91082400     33.54816227      7.34098527
    O     37.89402100     25.75493233     36.00408282      7.33624294
    O     37.28927486     27.86355739     31.88867855      7.59419623
    O     40.21166517     27.94509092     35.46000642      7.64391893
    O     29.64858121     34.06842230     29.82033664      7.18490491
    O     25.98842086     29.81172427     36.20974061      7.32887228
   Ti     27.94233254     30.05282393     35.57224536      1.76251008
    O     28.12717812     30.62873665     37.56586742      7.07767582
   Ti     28.16236893     32.21129336     33.39194119      1.43166077
    O     28.32050720     32.10752575     35.38328604      7.09354935
    O     27.44608752     30.34681756     33.58632923      7.31554112
    O     34.08867375     34.06375434     29.76946525      7.23753195
   Ti     30.15473614     32.32416749     30.60391588      1.13560568
    O     30.02135550     29.96887103     35.89410854      7.18014079
   Ti     32.05898261     30.05045696     35.51494529      1.71696030
    O     32.06307723     30.04213915     37.58951187      7.11993148
    O     29.99506538     32.17214700     32.59725944      6.99300092
   Ti     32.03401540     32.03339576     33.03242687      1.69006693
    O     32.09999876     32.05517154     30.94405472      7.06098366
    O     31.98729860     32.06095688     35.11318317      7.12689746
    O     32.04042572     30.00055658     33.43187387      7.14134990
    O     38.71760536     34.06036782     30.06723318      7.18490388
   Ti     34.11160407     32.27316713     30.64389961      1.68316639
    O     34.09884644     30.15317595     35.89003399      7.15879180
   Ti     36.15271000     30.02376070     35.57947759      1.70415946
    O     36.09242139     30.06453558     37.65522760      7.12405349
    O     34.08053803     32.04459188     32.69420156      7.12383415
   Ti     36.11222728     32.02357782     33.10896683      1.69010964
    O     36.12127566     32.15050021     31.02131315      7.06298514
    O     36.24571252     32.04071262     35.18619911      7.13371817
    O     36.07508525     29.98472819     33.49613551      7.14289204
   Ti     38.08666313     32.31584765     30.75397613      1.13610955
    O     38.18200871     29.90448404     36.00956599      7.17061602
   Ti     40.26808666     29.94718964     35.75099732      1.76155925
    O     40.12807558     30.01763002     37.83607613      7.07940285
    O     38.16341290     32.07989223     32.74430737      6.99094625
   Ti     39.94929086     32.13833253     33.62736945      1.42173511
    O     39.98821185     32.03085888     35.63843852      7.11097559
    O     40.63634895     30.25537879     33.73145963      7.32677609
    O     42.28567225     29.93623306     36.22540729      7.34023568
    O     25.94645562     34.08509179     36.32607897      7.34205668
   Ti     27.94292074     34.07081657     35.82929915      1.70915301
    O     28.10358324     34.05683746     37.90622563      7.07924948
   Ti     28.16995379     35.92804526     33.39512868      1.43429481
    O     28.33937597     36.03644505     35.38567044      7.09466245
    O     27.43684197     34.07165699     33.76132892      7.07114347
    O     34.17987617     37.30727164     29.28718948      7.59424945
   Ti     30.15845209     35.81346543     30.59972412      1.13544867
    O     30.05655137     34.06125076     36.02557713      7.18618122
   Ti     32.08375876     34.06657569     35.53039098      1.70723451
    O     32.13651255     34.10617853     37.60402128      7.12575376
    O     29.99886944     35.96766747     32.59288453      6.99254794
   Ti     32.03736346     36.10030806     33.02954541      1.69031290
    O     32.10408992     36.07881727     30.94112251      7.06112346
    O     31.98248426     36.07395691     35.10983005      7.12580186
    O     32.10431272     34.06707414     33.42752316      7.16138673
   Ti     34.11534488     35.85533151     30.64173138      1.68308362
    O     34.12810657     34.06198091     35.93809142      7.16469514
   Ti     36.17869088     34.06237661     35.59117265      1.70671172
    O     36.12560404     34.05066299     37.67158593      7.12115709
    O     34.08396220     36.08262113     32.69200254      7.12374204
   Ti     36.11538256     36.09700717     33.10821900      1.68995142
    O     36.12506117     35.97355076     31.02076021      7.06293626
    O     36.24333704     36.08282137     35.18619202      7.13401616
    O     36.08403686     34.06046796     33.50499320      7.15535392
   Ti     38.09040431     35.80634645     30.75310027      1.13614848
    O     38.19711940     34.06455411     36.09158902      7.17408486
   Ti     40.28242391     34.05990839     35.92769837      1.71927990
    O     40.15472911     34.06322850     37.99318991      7.07282153
    O     38.16712917     36.03838350     32.74404984      6.99114609
   Ti     39.95563974     35.97560285     33.62118884      1.42051260
    O     39.99888505     36.08746609     35.63214229      7.10884631
    O     40.59969792     34.05587205     33.84645364      7.07157394
    O     42.30078106     34.05251979     36.29653186      7.34020689
    O     25.99767173     38.33141584     36.21837325      7.33103486
   Ti     27.94939245     38.08816542     35.57100209      1.76288014
    O     28.13591235     37.53035996     37.56710254      7.07755503
    O     28.09107892     40.09236000     35.30355959      7.64617866
    O     27.44033678     37.78635056     33.58866006      7.31549260
    O     30.02880279     38.18568648     35.89918564      7.18152699
   Ti     32.06506922     38.07783866     35.51781927      1.71723483
    O     32.07256598     38.05801026     37.59222457      7.11812359
    O     30.77683993     40.16496790     31.78287256      7.59945810
   Ti     32.21936780     40.17830841     33.15438127      1.69463944
    O     32.12595040     40.10780877     35.20988196      7.06353161
    O     32.04854557     38.13207443     33.43452907      7.14135503
    O     34.10552369     37.97891477     35.89456083      7.15950944
   Ti     36.15836041     38.10308506     35.57419984      1.70414391
    O     36.10086509     38.08018602     37.65088212      7.12543552
    O     34.02674344     40.16761480     32.31098696      7.23726107
   Ti     35.81360843     40.17363808     33.19562374      1.69651592
    O     35.95582747     40.13206223     35.25054819      7.06670333
    O     36.08008418     38.13691394     33.49175368      7.14260191
    O     38.18972909     38.21217191     36.00203934      7.17090710
   Ti     40.27582299     38.16758577     35.74299745      1.76251825
    O     40.13753909     38.09183376     37.82767292      7.07946178
    O     37.28807606     40.25073823     31.86732386      7.59438627
    O     40.21974103     40.17034128     35.45854984      7.64404909
    O     40.63983639     37.86027408     33.72240673      7.32722830
    O     42.29407557     38.17673887     36.21640637      7.34037474
    O     29.85964270     42.18741804     35.98097210      7.33084829
   Ti     31.86931260     42.06439700     35.55485944      1.57491342
    O     31.91710331     42.47301850     37.62010270      7.06427538
    O     31.93850608     42.18891890     33.52757768      7.34316285
    O     33.88959363     42.42458297     35.83945089      7.13315090
   Ti     35.92037759     42.11450560     35.55565850      1.57998734
    O     35.82813390     42.60915946     37.60082197      7.05934036
    O     35.89272932     42.21021713     33.53250039      7.34122387
    O     37.91671776     42.36883476     35.98126285      7.33655525
    O     29.34020459     26.12721657     39.90484575      7.34668926
    O     33.77562549     25.91285613     39.92102044      7.33895771
    O     37.88124266     25.84098852     40.02191010      7.34638924
    O     26.92187986     30.05950691     40.09086547      6.49664589
    O     29.84008026     30.13857148     40.06765023      7.13473408
    O     27.49034425     28.82339511     40.69326282      6.70792453
   Ti     29.99362589     26.23218364     37.97656629      1.39330265
    O     33.93193549     30.00851943     40.05755765      7.17008209
   Ti     29.51621474     28.14141022     40.37614218      1.67489275
    O     29.66686652     28.17808611     38.28120812      7.07714448
    O     29.80058599     27.86168151     42.39710355      7.32242507
   Ti     31.77016801     28.30452993     42.48862926      1.38453085
    O     31.66904877     28.16111323     40.47004469      7.13643586
   Ti     33.86460837     26.05325983     37.90126642      1.60460309
    O     38.08970450     29.94127607     40.19591871      7.17516038
   Ti     33.73465857     27.93937630     40.24017606      1.70755715
    O     33.95769777     28.02885404     38.18221273      7.07962086
    O     33.70344513     27.64652853     42.30750147      7.07737930
   Ti     35.64639773     28.22137769     42.55541743      1.41520702
    O     35.80192336     28.14418671     40.54839400      7.12639227
   Ti     37.68541971     26.04198631     38.01365734      1.39728563
    O     42.33278142     30.01692661     40.21934797      7.33364561
   Ti     37.88848324     27.86354315     40.48735352      1.75726300
    O     37.95310608     27.98203787     38.40300169      7.08206080
    O     37.51090910     27.47866114     42.49584408      7.33205369
    O     39.87597170     27.82258065     40.88710195      7.64916668
    O     25.94079106     34.07331750     40.44416059      7.16367862
   Ti     26.26336372     30.28876117     38.15370570      1.37531501
    O     30.46410111     34.07019263     40.18078955      7.16340668
   Ti     26.37489196     32.03280219     40.67857075      1.51858601
    O     25.63832604     32.10166708     38.73340990      7.04839828
    O     26.19764646     31.86627576     42.67985994      7.31643253
   Ti     28.14662749     32.33074574     43.12262588      1.69612293
    O     28.24166843     32.61970827     41.06910880      7.06738586
    O     28.17944189     30.92592742     44.54746714      7.61474910
   Ti     30.06736482     30.15348851     37.98432552      1.73461912
    O     34.09227742     34.06971358     40.14920496      7.15609054
   Ti     30.15655833     32.08171292     40.60403561      1.73445100
    O     30.34799681     32.09961273     38.52583046      7.12653062
   Ti     32.35780897     30.09838353     45.47268733      1.10104925
    O     30.12102660     31.95242874     42.70396700      7.13873905
   Ti     32.13997991     32.05426792     43.10698121      1.70634503
    O     32.13843814     31.91245996     41.03106612      7.12174108
    O     32.41080894     32.06424503     45.17574302      7.05883924
    O     32.11630051     30.00544234     43.48292973      6.99731855
   Ti     34.07242975     30.07995163     37.97586558      1.72498172
    O     38.05873297     34.06246326     40.26511838      7.16729877
   Ti     34.11830822     32.02941800     40.53470656      1.70780725
    O     34.10989081     32.06903915     38.45450196      7.12210156
    O     34.07578079     29.52127321     46.32258411      6.91611571
   Ti     35.77239693     30.09856863     45.43031459      1.10298978
    O     34.13331752     32.21558981     42.63205122      7.14957370
   Ti     36.13816066     32.03646491     43.05877207      1.69948615
    O     36.11867265     31.91491400     40.97778278      7.12694866
    O     36.03003497     32.05436414     45.14736409      7.06325485
    O     35.88207793     30.00220981     43.43048705      6.99230711
   Ti     38.09151889     30.01349577     38.10264661      1.71250485
    O     42.36450891     34.05598799     40.39137019      7.13471833
   Ti     38.12927191     31.99258603     40.58693875      1.70171966
    O     38.10386987     32.02883786     38.51245468      7.13104167
    O     38.16500311     31.99684474     42.67163012      7.13746562
   Ti     40.19533059     32.24422582     42.99614077      1.69570470
    O     40.15770045     32.04718912     40.94279211      7.06670440
    O     40.21773106     30.81758145     44.37924724      7.59565894
   Ti     42.07267328     30.25924605     38.21256571      1.40381326
   Ti     42.14277108     32.01610180     40.66153440      1.57877274
    O     42.67478071     32.12423904     38.62714016      7.05662245
    O     42.22799157     32.08853595     42.68348983      7.33753166
    O     26.98414089     38.06901775     40.09511271      6.49954923
   Ti     26.14293121     34.07493755     38.35445252      1.55571846
    O     29.88561191     38.01420700     40.07933405      7.13519163
   Ti     26.40341430     36.10650800     40.68588054      1.51916147
    O     25.66197738     36.05069546     38.74197035      7.04812724
    O     26.22090045     36.32644470     42.68120373      7.31374532
   Ti     28.15667553     35.83984131     43.14759939      1.69490134
    O     28.25455007     35.48558329     41.10213330      7.06839694
    O     28.09547129     34.07926830     44.06046741      7.21514814
   Ti     30.15336258     34.06983596     38.10263775      1.74645483
    O     33.92304510     38.12633812     40.06356723      7.17019588
   Ti     30.15208810     36.06310088     40.61416380      1.73213566
    O     30.29067374     36.04185446     38.53337436      7.12668989
    O     30.93649018     34.03329380     46.86770700      7.58040792
   Ti     32.39714247     34.07863064     45.53829052      1.68469226
    O     30.11755720     36.26483677     42.71004925      7.13841417
   Ti     32.13584583     36.10820662     43.11387713      1.70482045
    O     32.13832476     36.18902065     41.03487385      7.12183138
    O     32.33034355     36.09895913     45.19307915      7.06226449
    O     31.99899312     34.08135162     43.51476889      7.11854080
   Ti     34.12232768     34.07063114     38.04749215      1.73907034
    O     38.10243929     38.18406055     40.18737474      7.17517685
   Ti     34.12264612     36.10893520     40.54735394      1.70668315
    O     34.15858253     36.07213984     38.46597322      7.12381820
    O     34.19289246     34.11660395     46.41897534      7.24912896
   Ti     35.96182204     34.07142489     45.49638323      1.68586327
    O     34.13750122     35.96836540     42.64878307      7.15337523
   Ti     36.15538765     36.10242598     43.06073776      1.69923848
    O     36.12650529     36.20321003     40.98003934      7.12674159
    O     36.10825132     36.08976927     45.15398259      7.06626042
    O     36.21493877     34.06989882     43.45176023      7.12142109
   Ti     38.10389193     34.06127238     38.18002982      1.72041729
    O     42.34172455     38.09633669     40.20851659      7.33355640
   Ti     38.13658087     36.13328935     40.58108594      1.70123872
    O     38.09732634     36.09356203     38.50736532      7.12941568
    O     37.45681893     34.03003454     46.79321907      7.58682100
    O     38.17860444     36.13841181     42.66558162      7.13704318
   Ti     40.20759165     35.88081035     42.99074427      1.69474787
    O     40.16602017     36.06677284     40.93420215      7.06861192
    O     40.15703598     34.06392282     43.81497406      7.24043179
   Ti     42.12390108     34.05530831     38.32045438      1.61031776
   Ti     42.15242875     36.09786814     40.65578271      1.57833144
    O     42.68340017     35.98296364     38.62157717      7.05589427
    O     42.23903697     36.03507557     42.67745028      7.33615589
   Ti     26.27640696     37.86896564     38.16731381      1.37004074
    O     29.37219954     42.02247305     39.92285603      7.34743489
    O     27.52839440     39.31109317     40.70780450      6.70682930
    O     28.17457717     37.20521137     44.61296608      7.61728698
   Ti     30.07675724     37.99643444     37.99085128      1.73431796
    O     33.82029994     42.22606393     39.91751432      7.34036183
   Ti     29.54818105     40.00813172     40.39533961      1.67631775
    O     29.69615059     39.97237176     38.29887008      7.07581411
   Ti     32.39647976     38.06872202     45.46991181      1.13535309
    O     29.82981149     40.28811483     42.41614444      7.32249200
   Ti     31.80395342     39.86819737     42.50790368      1.38399794
    O     31.69838935     40.00427480     40.48997807      7.13573200
    O     32.16156050     38.15700478     43.47964004      6.99691674
   Ti     34.08170483     38.05533276     37.98095864      1.72633906
    O     37.90102592     42.28566341     40.00054066      7.34648659
   Ti     33.76520511     40.19933144     40.24626622      1.70916000
    O     33.95990383     40.10245774     38.18570112      7.07642498
    O     34.13600014     38.67171793     46.19312169      7.18538324
   Ti     35.85260650     38.04698202     45.43060885      1.13572111
    O     33.74258558     40.50345671     42.31281370      7.07766152
   Ti     35.68219483     39.91894518     42.55567386      1.41670454
    O     35.82303896     39.97348683     40.54662210      7.12246633
    O     35.93894149     38.14126537     43.42999055      6.99205484
   Ti     38.10134579     38.10709121     38.09473107      1.71312751
   Ti     37.90863120     40.26435610     40.47164099      1.75649358
    O     37.97576400     40.14065694     38.38817452      7.08064451
    O     37.54220296     40.66885350     42.47847848      7.33146863
    O     39.89733979     40.29848007     40.86734672      7.64921054
    O     40.23183717     37.30565860     44.37727944      7.59661095
   Ti     42.08230654     37.84790021     38.20267928      1.40391519
   Ti     30.02589934     41.91585464     37.99389711      1.39367731
   Ti     33.89210095     42.07579682     37.89713479      1.60587526
   Ti     37.71738509     42.07807455     37.99185359      1.39864472
   Mg     34.08593798     28.93526039     47.88871644      0.51985128
    H     33.97742522     27.88861106     49.55526011      0.90893045
    H     34.04801031     28.60834225     49.84171900      0.90804433
