  270
Geometry Step: 118
    O     28.08810356     28.04339043     35.34641059      7.64634842
    O     34.16733837     30.82263431     29.29067721      7.59407907
    O     29.84534910     25.95111528     35.96776068      7.33085232
   Ti     31.85676184     26.06843106     35.55072152      1.57504498
    O     31.89533705     25.64758605     37.61368847      7.06449958
    O     30.78119186     27.97371554     31.77574949      7.59931037
   Ti     32.21868028     27.95543881     33.15242968      1.69394627
    O     32.11155074     28.02576534     35.20782427      7.06234892
    O     31.93465559     25.94496618     33.52399209      7.34286511
    O     33.87601215     25.71521129     35.84504138      7.13304793
   Ti     35.90958076     26.01212742     35.57156251      1.57876343
    O     35.80271376     25.50971871     37.61385313      7.05858464
    O     34.02990752     27.96039776     32.31561492      7.23773151
   Ti     35.81618128     27.94921347     33.20174761      1.69601028
    O     35.94804231     27.99382676     35.25707224      7.06804741
    O     35.89793501     25.91371486     33.54714583      7.34196035
    O     37.90317791     25.76060011     36.01087263      7.33650410
    O     37.29465943     27.87366597     31.87745757      7.59461551
    O     40.21891753     27.94394520     35.45748228      7.64387417
    O     29.63722099     34.06679115     29.82727961      7.18456583
    O     25.98928595     29.81008282     36.21864272      7.32888596
   Ti     27.94358666     30.05269514     35.58069123      1.76206044
    O     28.13057426     30.62829449     37.57319746      7.07689213
   Ti     28.16548106     32.21071802     33.39857218      1.43215596
    O     28.33137462     32.10753068     35.38925860      7.09432940
    O     27.44527546     30.34789832     33.59614708      7.31511877
    O     34.09265577     34.06571413     29.76813239      7.23711873
   Ti     30.15322751     32.32402818     30.60704697      1.13584844
    O     30.02337250     29.96551743     35.90013179      7.18035441
   Ti     32.06018119     30.05271646     35.51658445      1.71594191
    O     32.06633487     30.04959219     37.59135379      7.12116729
    O     29.99617881     32.16735432     32.60032073      6.99279585
   Ti     32.03589009     32.03497928     33.03218834      1.69062779
    O     32.09975454     32.06348076     30.94462723      7.06049418
    O     31.98646390     32.06280436     35.11204092      7.12633363
    O     32.04860742     30.00198482     33.43297835      7.14157907
    O     38.70818389     34.06512211     30.05639313      7.18491982
   Ti     34.11155341     32.27597447     30.64362795      1.68365265
    O     34.10156826     30.15498011     35.89147806      7.15959953
   Ti     36.15548314     30.02500929     35.57534847      1.70427915
    O     36.09587920     30.06053125     37.65186573      7.12399744
    O     34.08195595     32.04842839     32.69393799      7.12376887
   Ti     36.11417736     32.02650300     33.10639173      1.69039270
    O     36.12080429     32.14517600     31.01929168      7.06244628
    O     36.24863355     32.04227855     35.18352747      7.13417634
    O     36.08115653     29.98735581     33.49293000      7.14257864
   Ti     38.08475253     32.32001420     30.74819496      1.13614095
    O     38.18505690     29.90246449     36.00758675      7.17140627
   Ti     40.27167763     29.94639408     35.74581062      1.76130693
    O     40.13172382     30.00775618     37.83103952      7.07981285
    O     38.16456334     32.09040543     32.73911737      6.99088565
   Ti     39.94957837     32.14044756     33.62435942      1.42114369
    O     39.99140719     32.02986799     35.63543074      7.11080113
    O     40.63012509     30.25472877     33.72431637      7.32696292
    O     42.28999686     29.94316681     36.21867702      7.34054646
    O     25.95238533     34.07835753     36.33719047      7.34139350
   Ti     27.94665465     34.06942096     35.83642591      1.71005477
    O     28.10974195     34.05492552     37.91432168      7.07959700
   Ti     28.16538929     35.92703322     33.39733037      1.43298214
    O     28.34054081     36.03359023     35.38709522      7.09465944
    O     27.43702283     34.06918016     33.77066589      7.07105890
    O     34.16949398     37.30997407     29.29001162      7.59404183
   Ti     30.15283013     35.81199502     30.60191683      1.13568262
    O     30.05939245     34.06469139     36.03350217      7.18641000
   Ti     32.08459698     34.06789500     35.52944827      1.70751317
    O     32.14001610     34.09136072     37.60241035      7.12579112
    O     29.99422963     35.97206208     32.59476134      6.99258832
   Ti     32.03343040     36.10225808     33.02869804      1.69041595
    O     32.09957663     36.07120617     30.94080741      7.06087756
    O     31.98228155     36.07536876     35.10865674      7.12601332
    O     32.10312703     34.06895052     33.42678051      7.16153489
   Ti     34.11176538     35.85612102     30.64227352      1.68351895
    O     34.12893679     34.06732036     35.93788808      7.16535624
   Ti     36.17944683     34.06503549     35.58807047      1.70622962
    O     36.12721518     34.04913122     37.66825159      7.12075135
    O     34.08013028     36.08288022     32.69238662      7.12395841
   Ti     36.11265235     36.09940509     33.10586945      1.69064440
    O     36.12142720     35.98264818     31.01941865      7.06220476
    O     36.24792912     36.08525986     35.18322695      7.13388274
    O     36.07905763     34.06338611     33.50265586      7.15507470
   Ti     38.08579163     35.80970226     30.75049525      1.13633670
    O     38.19876663     34.06406408     36.08800130      7.17541243
   Ti     40.28574936     34.05857749     35.92604907      1.71873867
    O     40.15755575     34.06148022     37.99138432      7.07304553
    O     38.16417486     36.03498903     32.74190394      6.99140791
   Ti     39.95048580     35.97635209     33.62526929      1.42064859
    O     40.00000372     36.08687999     35.63640452      7.10936224
    O     40.60061634     34.05817464     33.84416025      7.07164685
    O     42.30388532     34.05152571     36.29619769      7.34014296
    O     26.00211791     38.33656962     36.23180476      7.32967614
   Ti     27.95044457     38.08486261     35.57833804      1.76274152
    O     28.14048983     37.50840539     37.56980566      7.07785350
    O     28.10028156     40.08971490     35.31683420      7.64644272
    O     27.43867668     37.78660224     33.59703090      7.31536657
    O     30.03007120     38.17879246     35.90176136      7.18130231
   Ti     32.06604016     38.07955952     35.51681386      1.71682957
    O     32.07469551     38.06483544     37.59202222      7.11886096
    O     30.77133448     40.16756731     31.78589299      7.59971191
   Ti     32.21752543     40.18065862     33.15433099      1.69437096
    O     32.12321244     40.10952195     35.20966224      7.06313657
    O     32.04657307     38.13428154     33.43341373      7.14141058
    O     34.10679140     37.97614820     35.89195070      7.15981936
   Ti     36.15959770     38.10488324     35.57109708      1.70413836
    O     36.10296959     38.06698443     37.64785041      7.12535825
    O     34.02437633     40.17028026     32.30965994      7.23747223
   Ti     35.81175427     40.17574347     33.19388456      1.69635816
    O     35.95445655     40.13375869     35.24861628      7.06748446
    O     36.07793099     38.13878080     33.48927412      7.14223491
    O     38.19108687     38.21503646     35.99992296      7.17120698
   Ti     40.27793878     38.16748718     35.74638690      1.76264287
    O     40.13884703     38.10135247     37.83070182      7.07900508
    O     37.29025790     40.24964658     31.87006271      7.59433062
    O     40.22776877     40.17006798     35.45889481      7.64415560
    O     40.63619639     37.86008846     33.72512599      7.32689662
    O     42.29618932     38.16842070     36.21937632      7.34047229
    O     29.86122019     42.19182684     35.98556615      7.33120551
   Ti     31.87067167     42.06607791     35.55676924      1.57471397
    O     31.92160238     42.45683625     37.62518695      7.06418945
    O     31.94146376     42.19168459     33.52928664      7.34354489
    O     33.89127855     42.42294596     35.83907660      7.13292756
   Ti     35.92258288     42.11813033     35.55287847      1.57843720
    O     35.83037724     42.62608505     37.59471276      7.05937908
    O     35.89349552     42.21263801     33.52992445      7.34097369
    O     37.92100851     42.35497910     35.98095248      7.33645810
    O     29.35080026     26.12032449     39.90834426      7.34747007
    O     33.76476210     25.91406503     39.92546228      7.33931161
    O     37.87590729     25.84538118     40.03124907      7.34652480
    O     26.92529664     30.05346286     40.09821699      6.49678028
    O     29.81261935     30.13928169     40.07210088      7.13725165
    O     27.48489134     28.81121537     40.69528357      6.70687048
   Ti     30.00823118     26.22501410     37.98081628      1.39227781
    O     33.95185604     30.00513566     40.05867230      7.16914765
   Ti     29.51278561     28.13637831     40.38071656      1.67646343
    O     29.68656708     28.17165099     38.28927290      7.07657876
    O     29.79618684     27.83498573     42.39673917      7.32118512
   Ti     31.75720397     28.30920835     42.49727751      1.38732073
    O     31.66225160     28.18474674     40.47916112      7.13437222
   Ti     33.86776177     26.05083253     37.90462238      1.60445966
    O     38.07789724     29.94406747     40.19313519      7.17271702
   Ti     33.72519164     27.94095033     40.24220508      1.70721096
    O     33.94397253     28.02725621     38.18220598      7.07976491
    O     33.69507141     27.67228742     42.31205529      7.07666667
   Ti     35.64106585     28.24512082     42.55058576      1.41336333
    O     35.79636943     28.12755944     40.54424826      7.12957873
   Ti     37.68892467     26.04025081     38.02109990      1.39711459
    O     42.33721399     30.01480912     40.21614728      7.33385341
   Ti     37.88806488     27.86969797     40.48774318      1.75767580
    O     37.96016307     27.98129026     38.40182305      7.08260128
    O     37.51518136     27.52447727     42.50305364      7.33207106
    O     39.87678713     27.82781237     40.88708856      7.64983935
    O     25.94645552     34.06863213     40.45391498      7.16396440
   Ti     26.26756615     30.28451586     38.16202873      1.37635889
    O     30.48138132     34.06372700     40.18924394      7.16238573
   Ti     26.37622186     32.02646688     40.68695220      1.51803857
    O     25.64379325     32.09814258     38.74044153      7.04812406
    O     26.19712076     31.85495594     42.68748405      7.31653962
   Ti     28.14290452     32.33526194     43.13085705      1.69572149
    O     28.24211077     32.61760985     41.07527316      7.06856924
    O     28.18234580     30.93668038     44.56159371      7.61443409
   Ti     30.07008509     30.14990015     37.99089680      1.73378641
    O     34.06733222     34.06558660     40.14929808      7.15472932
   Ti     30.15853875     32.07704932     40.61395820      1.73305486
    O     30.35734893     32.09433885     38.53625144      7.12689550
   Ti     32.28680540     30.11461567     45.50116234      1.10148159
    O     30.12325642     31.98487858     42.71596979      7.14156004
   Ti     32.14768314     32.04820624     43.11505424      1.70607777
    O     32.13696556     31.85720257     41.04338349      7.12145585
    O     32.51783673     32.06281897     45.16876309      7.05854521
    O     32.04215199     30.00863066     43.51302414      6.99503600
   Ti     34.07697218     30.07684392     37.97680105      1.72555595
    O     38.06325316     34.06271882     40.26352904      7.16670208
   Ti     34.11140794     32.02696506     40.53636176      1.70841872
    O     34.11615625     32.06474781     38.45644972      7.12170060
    O     33.99601098     29.41772355     46.27228742      6.91124645
   Ti     35.67058057     30.12453277     45.42770820      1.09830960
    O     34.13290844     32.24766858     42.62882135      7.14907414
   Ti     36.13725111     32.05515802     43.06014852      1.69622789
    O     36.11312625     31.93050191     40.97936555      7.12696362
    O     36.00816524     32.07314046     45.15813878      7.06902040
    O     35.83717151     30.02631974     43.43135276      6.99226785
   Ti     38.09445335     30.01232852     38.10045920      1.71257089
    O     42.36973095     34.05253216     40.38985036      7.13386189
   Ti     38.12391920     31.99398360     40.58538084      1.70189710
    O     38.10622947     32.02791659     38.51077685      7.13139935
    O     38.16201987     31.98642504     42.67054663      7.13703501
   Ti     40.19372554     32.23427031     42.99224716      1.69484752
    O     40.15382920     32.03720135     40.93876765      7.06740349
    O     40.22396932     30.81071343     44.37896388      7.59594707
   Ti     42.07620882     30.25160352     38.20833997      1.40299968
   Ti     42.13974097     32.01312792     40.65690126      1.57931413
    O     42.66632576     32.12059187     38.62086830      7.05710375
    O     42.22639766     32.07893126     42.67825014      7.33720895
    O     26.99551893     38.06357915     40.09996998      6.49924662
   Ti     26.14981561     34.07105672     38.36494090      1.55665466
    O     29.87975880     38.00300917     40.07961973      7.13498251
   Ti     26.41113685     36.10214208     40.69291726      1.51894281
    O     25.66523134     36.04571592     38.75109353      7.04768204
    O     26.23259000     36.33769142     42.68670400      7.31299212
   Ti     28.16342067     35.83452769     43.15299638      1.69523470
    O     28.26208542     35.47879471     41.10694220      7.06885892
    O     28.07954684     34.07969485     44.07526667      7.21488097
   Ti     30.15999798     34.06381928     38.11086242      1.74569238
    O     33.93972972     38.12301845     40.06181650      7.17040444
   Ti     30.16010572     36.05489836     40.61840350      1.73242434
    O     30.31972091     36.03520205     38.53826824      7.12693240
    O     30.88882719     33.97844907     46.81427261      7.57834849
   Ti     32.39401188     34.07183292     45.53942122      1.68595160
    O     30.12659579     36.24483262     42.71497512      7.13793203
   Ti     32.14400672     36.10127016     43.11793514      1.70534984
    O     32.14384452     36.21200037     41.04102477      7.12147947
    O     32.32542625     36.09342573     45.19771057      7.06270701
    O     31.99366825     34.07489829     43.51971022      7.11723338
   Ti     34.12523658     34.06582837     38.04824802      1.73969250
    O     38.10306886     38.18362103     40.18558061      7.17533469
   Ti     34.12420780     36.10334123     40.54682793      1.70676193
    O     34.15708527     36.06659937     38.46548114      7.12329713
    O     34.18690755     34.13594339     46.42873656      7.25260743
   Ti     35.95642337     34.09113345     45.50603382      1.68497087
    O     34.14408018     35.95737583     42.64842137      7.15215972
   Ti     36.15895700     36.11331479     43.05722708      1.69823412
    O     36.12932564     36.19216614     40.97474459      7.12679582
    O     36.09091100     36.10965253     45.15389713      7.06788285
    O     36.23667106     34.08444627     43.46270365      7.12137169
   Ti     38.10593121     34.06097988     38.17760456      1.71918277
    O     42.34945234     38.09334220     40.21344544      7.33412971
   Ti     38.14030800     36.13313849     40.57815540      1.70088135
    O     38.10156814     36.09345752     38.50428799      7.12973073
    O     37.42957490     34.07781302     46.82805048      7.58601996
    O     38.18308629     36.16041200     42.66240309      7.13650448
   Ti     40.20659943     35.87522410     42.98838956      1.69468498
    O     40.17112707     36.06181515     40.93230884      7.06886154
    O     40.14629367     34.05615120     43.80607630      7.24010414
   Ti     42.12639196     34.05536744     38.31990739      1.61027637
   Ti     42.15717862     36.09394972     40.65705623      1.57833479
    O     42.68206668     35.98397445     38.62075785      7.05623271
    O     42.23880501     36.03111451     42.67911943      7.33650901
   Ti     26.28475267     37.86160749     38.17543166      1.37223959
    O     29.38849621     42.01364549     39.92845277      7.34678203
    O     27.53011123     39.30978669     40.71052050      6.70613402
    O     28.19975637     37.19981362     44.61799623      7.61729371
   Ti     30.07890589     37.98594254     37.99263466      1.73413110
    O     33.82143081     42.22137164     39.91586529      7.34039190
   Ti     29.55406513     39.99813559     40.39768878      1.67728656
    O     29.68975239     39.96132125     38.30046024      7.07595091
   Ti     32.39024566     38.06522204     45.46844612      1.13683407
    O     29.83456786     40.28046163     42.41823934      7.32236322
   Ti     31.80973123     39.86204678     42.50412581      1.38606674
    O     31.70430925     39.98466631     40.48638966      7.13538086
    O     32.16271931     38.15160131     43.47868695      6.99615396
   Ti     34.08420891     38.04986208     37.97895963      1.72624550
    O     37.92158141     42.28608284     39.99785647      7.34622588
   Ti     33.77186531     40.19451606     40.24433522      1.70879596
    O     33.97855184     40.09867915     38.18401027      7.07744145
    O     34.12544369     38.68937598     46.17985085      7.18439151
   Ti     35.84410378     38.06850698     45.41867537      1.13652676
    O     33.74321592     40.50874281     42.31090953      7.07728294
   Ti     35.68589087     39.93692974     42.55570966      1.41769847
    O     35.82776616     39.98281314     40.54789645      7.12051959
    O     35.93556433     38.15278766     43.41762185      6.99157512
   Ti     38.10206311     38.10777689     38.09296468      1.71344096
   Ti     37.91407810     40.26516424     40.47148148      1.75609847
    O     37.96770299     40.14007907     38.38702156      7.08072033
    O     37.54548192     40.68712095     42.47450542      7.33157955
    O     39.90228374     40.28628370     40.86644667      7.64862108
    O     40.23550653     37.29008456     44.38700580      7.59811805
   Ti     42.08250007     37.85058353     38.20729678      1.40324170
   Ti     30.02910490     41.90302892     37.99623113      1.39453798
   Ti     33.89956268     42.07236079     37.89594342      1.60578109
   Ti     37.71437338     42.07847157     37.99192484      1.39949532
   Mg     34.01437243     28.50776805     47.66945235      0.34424693
