  272
Geometry Step: 81
    O     28.09120881     28.04704491     35.33299329      7.64709414
    O     34.17684828     30.81984214     29.29624588      7.59418578
    O     29.83722563     25.94203967     35.98304585      7.33165915
   Ti     31.84866392     26.06949515     35.56472573      1.57491942
    O     31.88637734     25.67967460     37.63344783      7.06432036
    O     30.77245702     27.96865935     31.78358567      7.59905362
   Ti     32.20851277     27.95248999     33.16114462      1.69453520
    O     32.10884469     28.02457949     35.21633909      7.06149710
    O     31.92332474     25.94246718     33.53687527      7.34398193
    O     33.86597243     25.70379549     35.85679645      7.13260557
   Ti     35.89885852     26.00869555     35.58078275      1.57968582
    O     35.79773274     25.50007551     37.62182285      7.05963384
    O     34.01865208     27.95649133     32.32390023      7.23731171
   Ti     35.80180200     27.94514520     33.21681075      1.69616208
    O     35.93474149     27.99084290     35.27189733      7.06787539
    O     35.87663797     25.90860188     33.55790763      7.34115789
    O     37.89395045     25.75973462     36.01579358      7.33659763
    O     37.28449301     27.86341315     31.89777976      7.59451254
    O     40.20901138     27.93944139     35.47188855      7.64415804
    O     29.66200656     34.06739738     29.81923994      7.18474473
    O     25.99238479     29.80651308     36.22661564      7.32868725
   Ti     27.94210438     30.05540086     35.57990760      1.76152761
    O     28.13021800     30.64089845     37.57106641      7.07784580
   Ti     28.16266646     32.21152492     33.39459199      1.43201349
    O     28.32916921     32.10786820     35.38526056      7.09341076
    O     27.44312822     30.34881943     33.59425950      7.31557350
    O     34.08256093     34.06082459     29.77771986      7.23744844
   Ti     30.15795890     32.32299446     30.60877230      1.13552891
    O     30.02081083     29.96388648     35.90587316      7.18017705
   Ti     32.05770901     30.05044469     35.52652339      1.71693267
    O     32.06155374     30.03487980     37.60163840      7.12044648
    O     29.99610188     32.17455440     32.60238337      6.99289156
   Ti     32.03375088     32.03172703     33.04164974      1.69014773
    O     32.10106172     32.04521506     30.95341712      7.06067261
    O     31.98355508     32.06017357     35.12225415      7.12651320
    O     32.03927698     29.99932042     33.44323903      7.14139236
    O     38.72292062     34.05524404     30.07922956      7.18492713
   Ti     34.11123603     32.27034543     30.65216002      1.68322913
    O     34.09651241     30.15535707     35.90809823      7.15891090
   Ti     36.14868741     30.02246849     35.59041883      1.70424357
    O     36.08938677     30.06843769     37.66675667      7.12502999
    O     34.08012459     32.04215946     32.70300679      7.12420638
   Ti     36.11171704     32.02131756     33.11824401      1.69027959
    O     36.12069181     32.15273559     31.03116038      7.06278035
    O     36.24686091     32.03844757     35.19531102      7.13357088
    O     36.07135764     29.98255683     33.50732444      7.14302265
   Ti     38.08639828     32.31142470     30.76262010      1.13613286
    O     38.17756405     29.89654781     36.02251870      7.17068557
   Ti     40.26323328     29.94215761     35.76170701      1.76142803
    O     40.12500787     30.01215109     37.84651550      7.07946990
    O     38.16278052     32.07309545     32.75263784      6.99083558
   Ti     39.94840607     32.13290215     33.63604238      1.42173885
    O     39.98313565     32.02590538     35.64702407      7.11093068
    O     40.63252773     30.24898243     33.74204317      7.32691476
    O     42.28119469     29.93409237     36.23548604      7.34055314
    O     25.94814527     34.07975856     36.33235019      7.34189003
   Ti     27.94422294     34.06908117     35.83480482      1.70895341
    O     28.10372425     34.04792157     37.91293290      7.08005781
   Ti     28.17185738     35.92543837     33.39947703      1.43439208
    O     28.34079990     36.03457919     35.39009107      7.09451406
    O     27.43652094     34.07056790     33.76802735      7.07056519
    O     34.18799296     37.30337205     29.29286425      7.59430440
   Ti     30.16306168     35.81253176     30.60356693      1.13565398
    O     30.05723523     34.06215267     36.03593399      7.18600525
   Ti     32.08344943     34.06545068     35.53892437      1.70738240
    O     32.13636823     34.10556461     37.61298824      7.12614240
    O     30.00075920     35.96090374     32.59701079      6.99252097
   Ti     32.03815613     36.09852911     33.03650382      1.69071606
    O     32.10680604     36.08518992     30.94848980      7.06052202
    O     31.98099576     36.07213967     35.11630013      7.12539308
    O     32.10740137     34.06547398     33.43563134      7.16162172
   Ti     34.11630829     35.85286053     30.64870802      1.68325718
    O     34.12620916     34.05704938     35.95252009      7.16481866
   Ti     36.17542736     34.05978867     35.60114729      1.70682946
    O     36.12332210     34.04090385     37.68185054      7.12146306
    O     34.08450599     36.07972260     32.69961736      7.12412819
   Ti     36.11578882     36.09338285     33.11678644      1.69044298
    O     36.12549477     35.96292837     31.03027164      7.06237437
    O     36.23970674     36.07957246     35.19498448      7.13311773
    O     36.08245874     34.05763981     33.51476042      7.15502777
   Ti     38.09082033     35.80055248     30.76256343      1.13640476
    O     38.19387163     34.06260988     36.10262688      7.17475096
   Ti     40.27938218     34.05513601     35.93620019      1.71898141
    O     40.15223513     34.05859530     38.00223675      7.07316895
    O     38.16738641     36.03447641     32.75319069      6.99114595
   Ti     39.95677983     35.97142996     33.62924494      1.42031993
    O     39.99855796     36.08290905     35.63995902      7.10876602
    O     40.59782462     34.05077704     33.85544323      7.07154887
    O     42.29783919     34.04745626     36.30582420      7.34032159
    O     25.99616972     38.32608538     36.21625166      7.33094822
   Ti     27.95001186     38.08612788     35.57421493      1.76320373
    O     28.13245565     37.53314942     37.57206023      7.07767551
    O     28.08863188     40.08976073     35.30231006      7.64615250
    O     27.44368614     37.78449122     33.59076489      7.31571791
    O     30.02812573     38.18595889     35.90605705      7.18104450
   Ti     32.06399829     38.07571911     35.52399231      1.71726872
    O     32.07136763     38.04507239     37.59876823      7.11833877
    O     30.77867624     40.16253447     31.78619668      7.59921335
   Ti     32.21990891     40.17657001     33.15868623      1.69427416
    O     32.12481291     40.10546931     35.21465862      7.06382584
    O     32.04754661     38.13037892     33.44049449      7.14149001
    O     34.10426671     37.97641431     35.90090787      7.15931666
   Ti     36.15686216     38.09879418     35.58106793      1.70472757
    O     36.09951358     38.07917794     37.65770942      7.12526904
    O     34.02758667     40.16459430     32.31573266      7.23752343
   Ti     35.81450784     40.17006959     33.20131906      1.69614430
    O     35.95628920     40.12768055     35.25617297      7.06695880
    O     36.08057897     38.13325253     33.49782161      7.14279725
    O     38.18753818     38.20612778     36.01050509      7.17085095
   Ti     40.27355090     38.16357083     35.75084337      1.76234920
    O     40.13610875     38.08474271     37.83612411      7.08001264
    O     37.29005490     40.24501792     31.87404183      7.59439178
    O     40.21577375     40.16635411     35.46653989      7.64403394
    O     40.63997273     37.85647077     33.73066000      7.32721457
    O     42.29158371     38.17565890     36.22413979      7.34013615
    O     29.85811645     42.18158209     35.98821505      7.33126488
   Ti     31.86871670     42.06178487     35.56090963      1.57484348
    O     31.91777203     42.47934817     37.62451493      7.06446763
    O     31.93820352     42.18686142     33.53457555      7.34273313
    O     33.88964115     42.41830219     35.84381724      7.13280421
   Ti     35.92047931     42.11056461     35.56148806      1.58002305
    O     35.82655393     42.60579674     37.60620811      7.05962238
    O     35.89423926     42.20682090     33.53838215      7.34121857
    O     37.91614519     42.36390550     35.98956644      7.33632980
    O     29.35740561     26.12702762     39.93057724      7.34677681
    O     33.77900920     25.90989314     39.93389241      7.33919401
    O     37.86874122     25.83959609     40.03586659      7.34650383
    O     26.95212505     30.06574019     40.10230210      6.49816014
    O     29.83870747     30.13875276     40.07971756      7.13447177
    O     27.50083320     28.82352088     40.71060920      6.70741288
   Ti     29.99161909     26.23200290     37.99510543      1.39221578
    O     33.92232276     30.00633907     40.07686568      7.17152820
   Ti     29.52886916     28.14173937     40.39895064      1.67658812
    O     29.66452550     28.17760207     38.30132458      7.07746985
    O     29.80844236     27.87643369     42.42231279      7.32271138
   Ti     31.78281685     28.29871384     42.51660092      1.38408270
    O     31.67887985     28.16537029     40.49774458      7.13628655
   Ti     33.86539803     26.05366226     37.91384005      1.60428260
    O     38.08956164     29.93794077     40.20906567      7.17545489
   Ti     33.74428225     27.93544428     40.26033514      1.70969084
    O     33.96540330     28.02774557     38.20175820      7.07915422
    O     33.71079303     27.63133221     42.32760987      7.07771823
   Ti     35.64893437     28.21625294     42.58511612      1.41555962
    O     35.79835808     28.14958758     40.57659409      7.12099204
   Ti     37.68241588     26.03962475     38.02634688      1.39705451
    O     42.32573446     30.01573321     40.23083392      7.33348848
   Ti     37.88086401     27.86151791     40.50311445      1.75759531
    O     37.93853487     27.98042944     38.41786765      7.08141341
    O     37.51265041     27.47358988     42.51339567      7.33195889
    O     39.86950784     27.81896479     40.89645967      7.64937352
    O     25.94287838     34.07264662     40.45054268      7.16344599
   Ti     26.27254685     30.28446293     38.16979011      1.37419229
    O     30.46963116     34.06611817     40.19145138      7.16451554
   Ti     26.39312217     32.03642736     40.68803433      1.51940066
    O     25.64520965     32.09740471     38.74673520      7.04857660
    O     26.20684884     31.84325671     42.68501016      7.31475291
   Ti     28.15009819     32.31235757     43.14610763      1.69465646
    O     28.25297670     32.63657109     41.09689994      7.06852775
    O     28.16413378     30.92730190     44.59202154      7.61629518
   Ti     30.06564270     30.15155850     37.99600961      1.73464054
    O     34.09258074     34.06400951     40.16721953      7.15679568
   Ti     30.16066949     32.07757306     40.62625400      1.73371345
    O     30.35590891     32.09461771     38.54526828      7.12796410
   Ti     32.40086404     30.08647996     45.51383042      1.12147013
    O     30.11721679     31.89595214     42.72396826      7.13904620
   Ti     32.13451567     32.03171392     43.13981412      1.70499996
    O     32.13816749     31.91247175     41.06272948      7.12001732
    O     32.34239508     32.05500903     45.21660672      7.06073568
    O     32.16855412     29.98494179     43.52183333      6.99817441
   Ti     34.06993977     30.07825584     37.99436115      1.72487267
    O     38.05293436     34.05768180     40.27766683      7.16676071
   Ti     34.11675997     32.02505593     40.56348800      1.70679227
    O     34.10429267     32.06476940     38.48097833      7.12252336
    O     34.11230813     29.53199683     46.36651376      7.09914152
   Ti     35.80282546     30.09589690     45.48160641      1.12551441
    O     34.13129021     32.18749253     42.66399607      7.15327117
   Ti     36.14221137     32.01523888     43.08623072      1.69659635
    O     36.11608528     31.90487191     41.00448949      7.12566752
    O     36.10240699     32.04521656     45.18666794      7.06697600
    O     35.86936452     29.98825635     43.47991859      6.99089942
   Ti     38.08843846     30.00908282     38.11547884      1.71278586
    O     42.35995624     34.05387843     40.40054449      7.13419461
   Ti     38.12405543     31.98892369     40.60169265      1.70188777
    O     38.10159097     32.02387896     38.52707308      7.13057273
    O     38.16566591     31.97975190     42.68654149      7.13686156
   Ti     40.19501986     32.23656611     43.00851239      1.69587253
    O     40.15269795     32.04849857     40.95446734      7.06669958
    O     40.22246545     30.81585529     44.39822827      7.59623292
   Ti     42.06973544     30.25591000     38.22309715      1.40320683
   Ti     42.13707462     32.01473346     40.67081483      1.58003672
    O     42.67055237     32.12155831     38.63660402      7.05662302
    O     42.22689291     32.07960734     42.69200305      7.33686349
    O     26.97143785     38.07275632     40.09664588      6.49973629
   Ti     26.14318145     34.07104430     38.36078952      1.55569416
    O     29.88147693     38.00862364     40.08430469      7.13507283
   Ti     26.39861024     36.10802521     40.68832716      1.51923655
    O     25.65941432     36.04680857     38.74422354      7.04800067
    O     26.21611865     36.31203509     42.68544209      7.31472936
   Ti     28.15351619     35.82325880     43.14788326      1.69461913
    O     28.25251056     35.49302344     41.09898082      7.06784498
    O     28.10019066     34.06739493     44.07142179      7.21522065
   Ti     30.15393841     34.06218968     38.11305778      1.74631056
    O     33.92440519     38.12128916     40.07017427      7.17018268
   Ti     30.15553850     36.05874038     40.62114563      1.73297831
    O     30.28215238     36.03535955     38.54000795      7.12661469
    O     30.93012807     34.07336345     46.89410625      7.58267380
   Ti     32.38734955     34.07254276     45.55706054      1.68359420
    O     30.11913528     36.23616908     42.71893736      7.13819127
   Ti     32.13631024     36.08750944     43.12217784      1.70540028
    O     32.14047206     36.18973102     41.04390568      7.12173619
    O     32.33678182     36.09079763     45.19972219      7.06181024
    O     31.99755317     34.06213343     43.53257622      7.11810221
   Ti     34.12124426     34.06325124     38.06338075      1.73868789
    O     38.10179718     38.17867107     40.19611061      7.17539668
   Ti     34.12425634     36.10442016     40.55708506      1.70788378
    O     34.16249770     36.06453048     38.47646598      7.12281428
    O     34.19305041     34.07982065     46.41722253      7.24735105
   Ti     35.97128039     34.06186249     45.51476752      1.68514682
    O     34.13689437     35.94698788     42.65744524      7.15231396
   Ti     36.15251171     36.08258088     43.06908854      1.70031458
    O     36.12595421     36.20187752     40.98819524      7.12575379
    O     36.11241460     36.07740218     45.15876213      7.06405086
    O     36.19968657     34.05066519     43.46669724      7.12139386
   Ti     38.10167606     34.05471437     38.19195257      1.72036508
    O     42.34044553     38.09239401     40.21567153      7.33309315
   Ti     38.13455124     36.12780337     40.59142078      1.70195571
    O     38.09242052     36.08699884     38.51782102      7.12928192
    O     37.46044795     34.06453031     46.82274093      7.58982971
    O     38.17619804     36.11401451     42.67587880      7.13714242
   Ti     40.20685714     35.87295670     42.99838325      1.69641835
    O     40.16387476     36.06829389     40.94471752      7.06712525
    O     40.15230487     34.05698205     43.82394180      7.24007612
   Ti     42.12183540     34.05290315     38.32970023      1.61047900
   Ti     42.14909145     36.09551050     40.66363393      1.57945356
    O     42.68462719     35.97932807     38.63021500      7.05585663
    O     42.23872238     36.02921605     42.68471822      7.33631911
   Ti     26.26980830     37.86570147     38.16631049      1.36935156
    O     29.36982859     42.01831749     39.92805965      7.34683668
    O     27.52482872     39.31167419     40.70765467      6.70755226
    O     28.17612296     37.19722984     44.60457514      7.61672845
   Ti     30.07509217     37.99069155     37.99677041      1.73384145
    O     33.81880883     42.21915914     39.92082936      7.33949152
   Ti     29.54706531     40.00372191     40.39659605      1.67642525
    O     29.69970571     39.96934008     38.30103248      7.07641039
   Ti     32.40207164     38.06245646     45.46548138      1.13576122
    O     29.82846206     40.27646767     42.41894595      7.32313985
   Ti     31.80266349     39.85060646     42.50468341      1.38400544
    O     31.69628943     39.99976670     40.48820425      7.13444270
    O     32.16044961     38.13908320     43.47565646      6.99742606
   Ti     34.08051990     38.04680923     37.98753846      1.72595755
    O     37.89738334     42.28039744     40.00796267      7.34621398
   Ti     33.76208558     40.19383436     40.24821818      1.70972236
    O     33.95468576     40.09479514     38.18759692      7.07682484
    O     34.14212864     38.66497088     46.18535086      7.18444422
   Ti     35.85925842     38.03472855     45.43073879      1.13685202
    O     33.74054831     40.49103340     42.31576230      7.07760288
   Ti     35.67892850     39.90075413     42.55592990      1.41700324
    O     35.82204456     39.96970964     40.54764127      7.12344597
    O     35.93862512     38.12327389     43.42989742      6.99229498
   Ti     38.09952459     38.10025016     38.10337298      1.71278049
   Ti     37.90764681     40.25921275     40.47844414      1.75669428
    O     37.98051954     40.13484961     38.39447683      7.08120534
    O     37.53581829     40.65886710     42.48575174      7.33149444
    O     39.89506691     40.29552007     40.87704218      7.64879756
    O     40.22586942     37.30212250     44.37826740      7.59528570
   Ti     42.08161924     37.84335566     38.20976753      1.40387071
   Ti     30.02887653     41.91406955     38.00122809      1.39358453
   Ti     33.89064645     42.06878721     37.90066394      1.60619896
   Ti     37.71505783     42.07178153     37.99941487      1.39854854
   Ra     34.14008567     28.32674900     48.53753699      0.12222745
    H     34.02522363     28.83957204     49.52662202      0.99147953
    H     34.10129465     28.09951621     49.63199060      0.99241194
