  270
Geometry Step: 51
    O     28.09174157     28.04512986     35.33809729      7.64654071
    O     34.16971920     30.82270999     29.28966439      7.59409706
    O     29.84092799     25.94836248     35.97058051      7.33157825
   Ti     31.85307069     26.06947894     35.55315438      1.57500759
    O     31.88869839     25.66302325     37.61892926      7.06449067
    O     30.78027250     27.97043496     31.77362193      7.59901829
   Ti     32.21423129     27.95512971     33.15329671      1.69470447
    O     32.10995341     28.02578723     35.20838413      7.06162877
    O     31.93059786     25.94437270     33.52623251      7.34336802
    O     33.87096224     25.71194664     35.84837635      7.13271619
   Ti     35.90456783     26.01337243     35.57612242      1.57957456
    O     35.79871891     25.50796429     37.61796609      7.05931135
    O     34.02496109     27.95858264     32.31784062      7.23723284
   Ti     35.80905062     27.94827075     33.20870704      1.69649111
    O     35.94409330     27.99453312     35.26330901      7.06746950
    O     35.88508531     25.91206192     33.55286958      7.34160689
    O     37.89827403     25.76018309     36.01525645      7.33667358
    O     37.28929811     27.86636650     31.88781852      7.59406987
    O     40.21041132     27.94523673     35.45977179      7.64404228
    O     29.64460670     34.06767488     29.82397252      7.18482316
    O     25.99072293     29.81108527     36.21849443      7.32879413
   Ti     27.94365405     30.05377923     35.57821056      1.76199939
    O     28.13048230     30.63495061     37.56984653      7.07713521
   Ti     28.16441889     32.21080373     33.39526704      1.43194010
    O     28.32947273     32.10781518     35.38609324      7.09392766
    O     27.44768839     30.34678891     33.59236815      7.31526113
    O     34.08977480     34.06481016     29.77016613      7.23746614
   Ti     30.15484248     32.32389855     30.60585988      1.13560363
    O     30.02312934     29.96666235     35.89965595      7.18012971
   Ti     32.05990504     30.05165691     35.51836840      1.71673227
    O     32.06485325     30.04406432     37.59320425      7.12069291
    O     29.99615307     32.16965231     32.59922538      6.99284111
   Ti     32.03506039     32.03439220     33.03431793      1.69044064
    O     32.10049986     32.05904501     30.94600199      7.06084128
    O     31.98697261     32.06173185     35.11487608      7.12654876
    O     32.04335114     30.00169105     33.43528886      7.14133375
    O     38.71244303     34.06273875     30.06325109      7.18497434
   Ti     34.11188790     32.27428817     30.64465459      1.68329363
    O     34.10022469     30.15414573     35.89607734      7.15910639
   Ti     36.15300796     30.02599709     35.58125705      1.70461438
    O     36.09294255     30.06432803     37.65747410      7.12423167
    O     34.08096847     32.04546090     32.69520067      7.12384897
   Ti     36.11260253     32.02520372     33.11010018      1.69015023
    O     36.12106524     32.14901077     31.02260015      7.06270538
    O     36.24701082     32.04218580     35.18714509      7.13356288
    O     36.07582551     29.98625966     33.49812810      7.14299386
   Ti     38.08579260     32.31793673     30.75322705      1.13606286
    O     38.18192885     29.90329567     36.01454292      7.17065895
   Ti     40.26647742     29.94732054     35.75183821      1.76160490
    O     40.12747779     30.01615836     37.83735499      7.07963309
    O     38.16344275     32.08419649     32.74379470      6.99092258
   Ti     39.94908599     32.13948556     33.62740181      1.42168421
    O     39.98667280     32.03087871     35.63823345      7.11082936
    O     40.63264795     30.25523470     33.73151850      7.32703054
    O     42.28421792     29.93723953     36.22619227      7.34053676
    O     25.95072421     34.08320433     36.33335608      7.34194553
   Ti     27.94656553     34.06985014     35.83402888      1.70904550
    O     28.10783619     34.04980170     37.91197711      7.07959950
   Ti     28.16924016     35.92693058     33.39736339      1.43433274
    O     28.34666786     36.03413756     35.38678246      7.09452028
    O     27.43824644     34.07034589     33.76731761      7.07088152
    O     34.17542198     37.30797453     29.28880255      7.59417558
   Ti     30.15701666     35.81259953     30.60178746      1.13548491
    O     30.05906855     34.06071432     36.03483037      7.18597135
   Ti     32.08421929     34.06633264     35.53365041      1.70776723
    O     32.13889640     34.10019486     37.60732587      7.12595411
    O     29.99806742     35.96863267     32.59493115      6.99255460
   Ti     32.03636921     36.09991894     33.03188502      1.69069419
    O     32.10277247     36.07553620     30.94347081      7.06090246
    O     31.98281072     36.07325136     35.11206711      7.12569834
    O     32.10383372     34.06735422     33.43089742      7.16099119
   Ti     34.11378469     35.85593828     30.64325321      1.68331607
    O     34.12809996     34.06133197     35.94312975      7.16507337
   Ti     36.17787982     34.06401471     35.59262051      1.70673521
    O     36.12574963     34.05164769     37.67307528      7.12089004
    O     34.08250422     36.08294155     32.69393655      7.12393686
   Ti     36.11428702     36.09801156     33.10906019      1.69049584
    O     36.12314635     35.97655062     31.02195262      7.06248180
    O     36.24416120     36.08372310     35.18672706      7.13328400
    O     36.08068052     34.06197975     33.50656245      7.15525391
   Ti     38.08797904     35.80815048     30.75333195      1.13629262
    O     38.19592593     34.06354667     36.09506351      7.17457508
   Ti     40.28078288     34.05992548     35.92852372      1.71927779
    O     40.15403377     34.05929650     37.99430854      7.07313560
    O     38.16563213     36.03710338     32.74446428      6.99111707
   Ti     39.95365362     35.97677110     33.62337430      1.42088902
    O     39.99497978     36.08751446     35.63423736      7.10883426
    O     40.59826632     34.05736901     33.84728290      7.07146324
    O     42.29888664     34.05340212     36.29781684      7.34019990
    O     26.00153183     38.33325858     36.22423449      7.33039933
   Ti     27.95205181     38.08484575     35.57580970      1.76299482
    O     28.13834612     37.51788165     37.56991624      7.07790339
    O     28.09731878     40.08902378     35.31010334      7.64620788
    O     27.43994471     37.78517744     33.59408946      7.31535926
    O     30.03045607     38.18218149     35.90477957      7.18124607
   Ti     32.06599826     38.07693039     35.52061130      1.71724375
    O     32.07405057     38.05407565     37.59551713      7.11831517
    O     30.77614335     40.16509350     31.78495003      7.59933220
   Ti     32.21862277     40.17757491     33.15637091      1.69461972
    O     32.12504930     40.10678803     35.21199154      7.06346130
    O     32.04793174     38.13146237     33.43723150      7.14130437
    O     34.10632914     37.97636259     35.89643471      7.15946512
   Ti     36.15887695     38.10253222     35.57618142      1.70468683
    O     36.10199460     38.07156732     37.65243581      7.12490316
    O     34.02546514     40.16799836     32.31176505      7.23732988
   Ti     35.81248740     40.17368906     33.19647402      1.69642259
    O     35.95449001     40.13085084     35.25129507      7.06702751
    O     36.07949618     38.13718046     33.49308151      7.14272967
    O     38.18972210     38.21304103     36.00376840      7.17083604
   Ti     40.27582655     38.16740673     35.74517568      1.76262244
    O     40.13812978     38.09344300     37.82981985      7.07958107
    O     37.28768311     40.25013488     31.86908776      7.59433953
    O     40.22289990     40.17017280     35.45972290      7.64406584
    O     40.63950589     37.86055250     33.72465627      7.32693985
    O     42.29380139     38.17348901     36.21843508      7.34034682
    O     29.85992188     42.18856385     35.98402072      7.33159842
   Ti     31.87049889     42.06348895     35.55725889      1.57488573
    O     31.91851059     42.46535688     37.62364407      7.06463296
    O     31.93962337     42.18849702     33.53024055      7.34320105
    O     33.89055390     42.42219788     35.84015736      7.13259715
   Ti     35.92152239     42.11419889     35.55664746      1.57966168
    O     35.83010811     42.61340090     37.60028671      7.05978904
    O     35.89330531     42.21049709     33.53349366      7.34129513
    O     37.91824573     42.36326489     35.98237181      7.33639349
    O     29.34790525     26.12615398     39.91403576      7.34726741
    O     33.76907835     25.91181323     39.92789411      7.33945236
    O     37.86733035     25.84312547     40.03623086      7.34673392
    O     26.93158964     30.05733895     40.09823557      6.49710185
    O     29.81917375     30.14105138     40.07250991      7.13600954
    O     27.49024996     28.81548766     40.69752303      6.70753401
   Ti     29.99762977     26.22801516     37.98351646      1.39226094
    O     33.94290128     30.00474409     40.06521135      7.17070987
   Ti     29.51996607     28.14078523     40.38700692      1.67579924
    O     29.68501933     28.17553209     38.29168239      7.07733239
    O     29.79914791     27.85649420     42.40797548      7.32263437
   Ti     31.76756529     28.30426575     42.50721125      1.38657187
    O     31.66967620     28.17751505     40.48903769      7.13423103
   Ti     33.86393465     26.05280091     37.90719218      1.60399855
    O     38.08581058     29.94171541     40.20169567      7.17430391
   Ti     33.73243358     27.93784208     40.25248817      1.70776553
    O     33.95363533     28.02765719     38.19384562      7.07936873
    O     33.70053673     27.65446892     42.32167134      7.07668606
   Ti     35.64477254     28.22724986     42.56954517      1.41435171
    O     35.79838844     28.13609892     40.56254846      7.12589970
   Ti     37.68460635     26.03992825     38.02569648      1.39676982
    O     42.32357109     30.01527619     40.22274882      7.33365286
   Ti     37.88479941     27.86624446     40.49756484      1.75783281
    O     37.94768014     27.98110517     38.41179339      7.08240711
    O     37.51387749     27.49653471     42.51006572      7.33227133
    O     39.87391555     27.82090905     40.89102762      7.64955749
    O     25.94763408     34.07053181     40.45061645      7.16319322
   Ti     26.26930661     30.28624182     38.16231594      1.37543073
    O     30.47806080     34.06392087     40.19076665      7.16310087
   Ti     26.38642940     32.03149257     40.68604260      1.51897330
    O     25.64532853     32.09921685     38.74236868      7.04836357
    O     26.20078317     31.85415774     42.68543823      7.31588271
   Ti     28.14662058     32.32263149     43.13770222      1.69599391
    O     28.25010906     32.62363037     41.08494912      7.06871222
    O     28.17524418     30.92347794     44.56861023      7.61488604
   Ti     30.06854909     30.15291937     37.99002665      1.73419570
    O     34.08106156     34.06395505     40.15587862      7.15574709
   Ti     30.16346103     32.07716859     40.61832935      1.73366968
    O     30.36293556     32.09472054     38.53960071      7.12682279
   Ti     32.34233868     30.09927811     45.50405469      1.12274600
    O     30.12256970     31.95222149     42.72012496      7.14179020
   Ti     32.14461522     32.04616677     43.12966235      1.70518272
    O     32.13948330     31.87494831     41.05594822      7.12022646
    O     32.46907801     32.06252246     45.19104432      7.06035452
    O     32.07968213     30.00186888     43.51754540      6.99593255
   Ti     34.07384048     30.07715107     37.98225910      1.72509184
    O     38.05307773     34.06081999     40.27023267      7.16688646
   Ti     34.11407554     32.02505614     40.54869609      1.70781202
    O     34.11453637     32.06474177     38.46734898      7.12232060
    O     34.05442333     29.43989887     46.27689663      7.09991449
   Ti     35.73582638     30.10768066     45.44385006      1.12386576
    O     34.13371232     32.22853371     42.64481746      7.14996688
   Ti     36.13962684     32.03873311     43.07011357      1.69693944
    O     36.11424675     31.91535768     40.98938838      7.12579406
    O     36.03543001     32.06110272     45.17069261      7.06979100
    O     35.87347477     30.00708822     43.44560316      6.99132448
   Ti     38.09112417     30.01161214     38.10799212      1.71216768
    O     42.36119363     34.05414416     40.39304513      7.13462906
   Ti     38.12374418     31.99208410     40.59471745      1.70209722
    O     38.10032731     32.02675578     38.52001202      7.13085150
    O     38.16392153     31.98487610     42.67987641      7.13669860
   Ti     40.19419120     32.23543128     43.00151274      1.69597814
    O     40.15214962     32.05018409     40.94720828      7.06663117
    O     40.22099388     30.81206088     44.38834617      7.59607628
   Ti     42.07236908     30.25567690     38.21441393      1.40332147
   Ti     42.13665264     32.01474890     40.66292166      1.57945826
    O     42.66958694     32.12206674     38.62926940      7.05639407
    O     42.22576469     32.07985786     42.68494922      7.33713348
    O     26.98722065     38.06661263     40.09854934      6.49940739
   Ti     26.14774791     34.07231014     38.36140234      1.55635316
    O     29.88329146     38.00500154     40.08388596      7.13513119
   Ti     26.40671287     36.10424332     40.69033337      1.51933803
    O     25.66339882     36.04736846     38.74730709      7.04807214
    O     26.22384481     36.32278225     42.68578356      7.31358716
   Ti     28.15733931     35.82697817     43.15133050      1.69513125
    O     28.25819344     35.48221226     41.10429735      7.06843965
    O     28.09069118     34.07137945     44.07366357      7.21474582
   Ti     30.15765194     34.06259820     38.11208406      1.74607225
    O     33.93007501     38.12106090     40.06583362      7.17082587
   Ti     30.15841912     36.05557095     40.62242306      1.73250529
    O     30.29846008     36.03426422     38.54158027      7.12652626
    O     30.91642674     34.01206809     46.86384506      7.57959841
   Ti     32.39320594     34.07561870     45.55297029      1.68461370
    O     30.12199433     36.24039478     42.71971502      7.13881359
   Ti     32.14029066     36.09580160     43.12339283      1.70534451
    O     32.14216583     36.19889994     41.04563158      7.12146112
    O     32.32185677     36.09612567     45.20335046      7.06288582
    O     31.98246643     34.07205484     43.53447746      7.11731293
   Ti     34.12390216     34.06427459     38.05371862      1.73934051
    O     38.10241517     38.18094623     40.18886043      7.17474480
   Ti     34.12422148     36.10239657     40.55358547      1.70678252
    O     34.15859650     36.06554398     38.47237187      7.12380011
    O     34.19040213     34.13329107     46.43320263      7.25135813
   Ti     35.96278577     34.08024172     45.51605808      1.68490941
    O     34.13910662     35.93847837     42.65447399      7.15257453
   Ti     36.15482886     36.09616483     43.06336164      1.69860065
    O     36.12661789     36.20443269     40.98307979      7.12511712
    O     36.11229693     36.09638436     45.16234801      7.06807102
    O     36.22234314     34.06868886     43.47221363      7.12018670
   Ti     38.10341538     34.05793952     38.18450596      1.72021572
    O     42.34136232     38.09374992     40.21165293      7.33352204
   Ti     38.13596184     36.13075446     40.58524045      1.70179504
    O     38.10090777     36.09021883     38.51154942      7.12964399
    O     37.45395572     34.05732126     46.81828052      7.58701023
    O     38.17888771     36.13079376     42.66971709      7.13698828
   Ti     40.20664711     35.87113470     42.99303595      1.69593335
    O     40.16499725     36.06567000     40.93836381      7.06763395
    O     40.14735674     34.05524489     43.81817995      7.23989267
   Ti     42.12350100     34.05436411     38.32198253      1.61001188
   Ti     42.15033748     36.09588811     40.65821237      1.57928723
    O     42.68323233     35.98144547     38.62497817      7.05571093
    O     42.23864083     36.02495264     42.67920004      7.33634769
   Ti     26.28022415     37.86447851     38.17096257      1.37063540
    O     29.38025824     42.01483970     39.92664135      7.34694372
    O     27.52563143     39.30945648     40.71263892      6.70577295
    O     28.18681592     37.20023741     44.60881618      7.61706330
   Ti     30.07837431     37.98729692     37.99575949      1.73367206
    O     33.81993388     42.22009005     39.91712474      7.33987300
   Ti     29.54719550     39.99931533     40.39461488      1.67715258
    O     29.69188058     39.96397323     38.29890919      7.07595019
   Ti     32.39149757     38.06865695     45.46582956      1.13661025
    O     29.83310964     40.27483740     42.41445113      7.32218142
   Ti     31.80802423     39.85496290     42.49888196      1.38513116
    O     31.70055196     39.99149306     40.48245854      7.13658244
    O     32.16861693     38.14691516     43.47494229      6.99611023
   Ti     34.08322479     38.04826984     37.98319311      1.72590776
    O     37.90793933     42.28199481     40.00162410      7.34654627
   Ti     33.76813032     40.19382968     40.24304691      1.70983292
    O     33.96644399     40.09745933     38.18348768      7.07707276
    O     34.13052471     38.67821609     46.18130179      7.18494273
   Ti     35.85042751     38.05361326     45.42512910      1.13625787
    O     33.74423560     40.49840538     42.30924971      7.07743842
   Ti     35.68385427     39.91495306     42.55360748      1.41742223
    O     35.82614024     39.97699681     40.54560473      7.12192691
    O     35.93128430     38.13464628     43.42382255      6.99110920
   Ti     38.10177202     38.10365585     38.09648271      1.71305753
   Ti     37.91172732     40.26086880     40.47243032      1.75682558
    O     37.97444535     40.13784053     38.38775819      7.08146312
    O     37.54292045     40.66666487     42.47882591      7.33136518
    O     39.90051423     40.29171521     40.86640232      7.64902786
    O     40.23199843     37.29431545     44.37998577      7.59600729
   Ti     42.08272589     37.84650978     38.20518433      1.40324973
   Ti     30.02691172     41.90725970     37.99585044      1.39352424
   Ti     33.89514936     42.07176247     37.89705842      1.60526300
   Ti     37.71806942     42.07616530     37.99312053      1.39818153
   Ra     34.08136460     28.21236255     48.46408614      0.10731551
