  270
Geometry Step: 50
    O     28.08890284     28.04262815     35.33662887      7.64626036
    O     34.16915061     30.82166963     29.28846763      7.59411101
    O     29.84227535     25.94539582     35.96483903      7.33095153
   Ti     31.85424046     26.06798915     35.54968258      1.57533054
    O     31.88975809     25.65878383     37.61528408      7.06489975
    O     30.77908104     27.96957447     31.77122547      7.59900534
   Ti     32.21442631     27.95397566     33.14958087      1.69439403
    O     32.10939991     28.02453277     35.20478775      7.06176820
    O     31.93258577     25.94326823     33.52329207      7.34305333
    O     33.87218075     25.70873255     35.84417399      7.13230102
   Ti     35.90515332     26.01210351     35.57245544      1.57987331
    O     35.80076847     25.50847129     37.61476823      7.05950502
    O     34.02579279     27.95761875     32.31460879      7.23758147
   Ti     35.81046637     27.94742856     33.20463320      1.69605928
    O     35.94606153     27.99346873     35.25960381      7.06774225
    O     35.88587432     25.91143997     33.54931394      7.34155524
    O     37.89894013     25.75544179     36.00771280      7.33628639
    O     37.29162238     27.86540744     31.88409501      7.59433810
    O     40.21511125     27.94449789     35.45638448      7.64406627
    O     29.64241189     34.06753158     29.82403317      7.18471870
    O     25.98806276     29.81038949     36.21197368      7.32904972
   Ti     27.94239685     30.05133371     35.57446269      1.76207281
    O     28.12786577     30.62494783     37.56803867      7.07729758
   Ti     28.16392986     32.21067660     33.39438424      1.43187981
    O     28.32395459     32.10703801     35.38574306      7.09424958
    O     27.44663733     30.34662245     33.58904123      7.31524319
    O     34.09028186     34.06515860     29.76854020      7.23755937
   Ti     30.15392120     32.32345662     30.60416425      1.13559693
    O     30.02211241     29.96689742     35.89559247      7.18032227
   Ti     32.05940888     30.05069151     35.51502247      1.71652134
    O     32.06472466     30.04630787     37.58989136      7.12030269
    O     29.99534121     32.16839696     32.59753160      6.99294785
   Ti     32.03468124     32.03355301     33.03171633      1.69019733
    O     32.09995026     32.05996842     30.94369360      7.06084022
    O     31.98733948     32.06099361     35.11215778      7.12659064
    O     32.04372723     30.00064559     33.43181836      7.14144551
    O     38.71201691     34.06337536     30.06103584      7.18501030
   Ti     34.11160079     32.27426253     30.64238864      1.68322564
    O     34.10016649     30.15305536     35.88934235      7.15886836
   Ti     36.15382355     30.02530217     35.57656415      1.70438124
    O     36.09422049     30.06157385     37.65263085      7.12385281
    O     34.08095773     32.04533746     32.69252140      7.12379309
   Ti     36.11284757     32.02503529     33.10658051      1.68997123
    O     36.12127352     32.14798417     31.01910620      7.06282333
    O     36.24682077     32.04210588     35.18370656      7.13370191
    O     36.07666654     29.98560634     33.49349675      7.14304517
   Ti     38.08616444     32.31828822     30.75107478      1.13606096
    O     38.18335784     29.90484841     36.00729134      7.17051553
   Ti     40.26916806     29.94680307     35.74831455      1.76123397
    O     40.13020605     30.01157904     37.83407561      7.07990300
    O     38.16404766     32.08485443     32.74169865      6.99110453
   Ti     39.94987149     32.14003493     33.62549766      1.42125108
    O     39.99166927     32.03119061     35.63653557      7.11123467
    O     40.63443802     30.25597541     33.72828981      7.32694715
    O     42.28698918     29.93826007     36.22225560      7.34029092
    O     25.94711553     34.08326769     36.33078720      7.34228214
   Ti     27.94340558     34.07029607     35.83077638      1.70896489
    O     28.10560024     34.05791275     37.90819440      7.07962354
   Ti     28.16724906     35.92776031     33.39440538      1.43368233
    O     28.34086380     36.03469185     35.38447180      7.09438325
    O     27.43695854     34.07050459     33.76363496      7.07099258
    O     34.17420422     37.30954308     29.28764402      7.59417686
   Ti     30.15601011     35.81275034     30.60015892      1.13556183
    O     30.05716245     34.06290846     36.02677947      7.18659602
   Ti     32.08415336     34.06647016     35.52863325      1.70729034
    O     32.13789241     34.09828648     37.60182116      7.12564437
    O     29.99665841     35.97021160     32.59315905      6.99270484
   Ti     32.03556973     36.10115675     33.02917091      1.69028979
    O     32.10198340     36.07543602     30.94109417      7.06086765
    O     31.98266776     36.07425928     35.10926496      7.12584226
    O     32.10279987     34.06758692     33.42607977      7.16134082
   Ti     34.11330469     35.85660744     30.64112936      1.68327696
    O     34.12885937     34.06446373     35.93607723      7.16517616
   Ti     36.17971766     34.06425448     35.58846774      1.70626892
    O     36.12677430     34.05278751     37.66899331      7.12099755
    O     34.08211503     36.08422237     32.69131558      7.12381302
   Ti     36.11401688     36.09883841     33.10593566      1.69023259
    O     36.12307172     35.97855546     31.01862872      7.06266001
    O     36.24528926     36.08450219     35.18350354      7.13351354
    O     36.08134023     34.06218411     33.50237248      7.15552961
   Ti     38.08802875     35.80899740     30.75108260      1.13627310
    O     38.19921585     34.06506375     36.08681615      7.17472548
   Ti     40.28578946     34.06062560     35.92508612      1.71884965
    O     40.15745273     34.06398181     37.99034109      7.07326863
    O     38.16560713     36.03795469     32.74224442      6.99127700
   Ti     39.95374087     35.97712187     33.62130493      1.42043893
    O     40.00064235     36.08830157     35.63222894      7.10893076
    O     40.60068108     34.05796714     33.84341125      7.07167089
    O     42.30411420     34.05337870     36.29485636      7.34018325
    O     26.00052692     38.33473195     36.22485416      7.33052699
   Ti     27.95025751     38.08545855     35.57413233      1.76306408
    O     28.13914638     37.51859792     37.56787947      7.07766621
    O     28.09628440     40.08984545     35.31066397      7.64628257
    O     27.43892886     37.78652210     33.59219139      7.31554811
    O     30.02958308     38.18288966     35.89957173      7.18125202
   Ti     32.06570417     38.07833635     35.51700885      1.71692813
    O     32.07415504     38.06395357     37.59182830      7.11829102
    O     30.77431059     40.16631903     31.78361697      7.59910524
   Ti     32.21817619     40.17973910     33.15313217      1.69467527
    O     32.12435105     40.10845735     35.20870308      7.06352564
    O     32.04749652     38.13319918     33.43364512      7.14160380
    O     34.10670280     37.97871557     35.89190323      7.15972475
   Ti     36.15991965     38.10387159     35.57209651      1.70406996
    O     36.10266480     38.07670300     37.64837194      7.12516624
    O     34.02540845     40.16921211     32.30936968      7.23749756
   Ti     35.81277819     40.17540654     33.19386346      1.69626943
    O     35.95460411     40.13289004     35.24861187      7.06721348
    O     36.07984938     38.13854882     33.48903216      7.14287724
    O     38.19116940     38.21470443     36.00002105      7.17106345
   Ti     40.27804053     38.16851892     35.74316327      1.76230697
    O     40.13904029     38.09710862     37.82807272      7.07953310
    O     37.28892646     40.25118304     31.86733214      7.59443079
    O     40.22613262     40.17137825     35.45840710      7.64405936
    O     40.64020806     37.86084969     33.72231981      7.32712867
    O     42.29599300     38.17304348     36.21754212      7.34046328
    O     29.86129850     42.19213025     35.98055808      7.33105264
   Ti     31.87111489     42.06509920     35.55492046      1.57525800
    O     31.91925235     42.46610510     37.62147420      7.06449308
    O     31.93959429     42.19060148     33.52773547      7.34330559
    O     33.89109541     42.42455492     35.83762562      7.13249522
   Ti     35.92197718     42.11631588     35.55357820      1.57952961
    O     35.83046346     42.61699742     37.59721979      7.05953198
    O     35.89344899     42.21215000     33.53061282      7.34110634
    O     37.91916503     42.36370439     35.97880428      7.33623234
    O     29.33736751     26.12602673     39.90263897      7.34695015
    O     33.76821200     25.91406791     39.92223886      7.33921404
    O     37.88024258     25.84207452     40.02638605      7.34631869
    O     26.91726022     30.05539489     40.09394167      6.49670021
    O     29.82927501     30.13974125     40.06882804      7.13604528
    O     27.48609037     28.81815833     40.69332554      6.70734961
   Ti     29.99936054     26.22888768     37.97683096      1.39268714
    O     33.94427436     30.00885830     40.05659255      7.16977419
   Ti     29.51222134     28.14042869     40.37443619      1.67549649
    O     29.67555793     28.17558973     38.28063124      7.07709737
    O     29.79823895     27.85390589     42.39313308      7.32173134
   Ti     31.76355470     28.31333812     42.48634679      1.38560329
    O     31.66440261     28.17084665     40.46859445      7.13554858
   Ti     33.86489694     26.05124466     37.90190069      1.60424763
    O     38.08129846     29.94358375     40.19268540      7.17409228
   Ti     33.72874569     27.94135641     40.23714142      1.70732598
    O     33.94938121     28.02790485     38.17865605      7.07985236
    O     33.69982178     27.66375524     42.30603051      7.07726390
   Ti     35.64328179     28.24211875     42.54681003      1.41447827
    O     35.79881910     28.13385842     40.54016979      7.12812295
   Ti     37.68814399     26.03969933     38.01749062      1.39732281
    O     42.34062170     30.01551233     40.21642944      7.33359751
   Ti     37.88705369     27.86598872     40.48576384      1.75739651
    O     37.95733951     27.98066451     38.40104538      7.08259282
    O     37.50877604     27.50010319     42.49755505      7.33215856
    O     39.87488279     27.82553746     40.88457599      7.64928924
    O     25.93957556     34.07087662     40.44799092      7.16377588
   Ti     26.26360447     30.28763859     38.15574812      1.37582568
    O     30.46928746     34.06811756     40.18265577      7.16263812
   Ti     26.37051423     32.02914518     40.68105284      1.51804589
    O     25.63642990     32.10014677     38.73495460      7.04838470
    O     26.19571870     31.86715981     42.68312523      7.31679276
   Ti     28.14381239     32.33978904     43.12288659      1.69571212
    O     28.23995511     32.61005377     41.06670263      7.06782668
    O     28.19262197     30.93224558     44.54408885      7.61406067
   Ti     30.06887779     30.15238449     37.98596715      1.73429918
    O     34.07958577     34.07136508     40.14735888      7.15589928
   Ti     30.15908392     32.08117254     40.60650934      1.73451328
    O     30.34671913     32.09848698     38.52841999      7.12640700
   Ti     32.34161669     30.10999203     45.47113938      1.11480349
    O     30.12408245     31.98553475     42.70770988      7.13981450
   Ti     32.14488583     32.06379591     43.10435410      1.70704939
    O     32.13981922     31.88923733     41.03116473      7.12159094
    O     32.45879360     32.07450705     45.16736553      7.05972537
    O     32.08107352     30.01777163     43.48375467      6.99630157
   Ti     34.07476789     30.07902132     37.97454790      1.72493730
    O     38.06540552     34.06482317     40.26079184      7.16705001
   Ti     34.11781224     32.03105349     40.53159994      1.70814898
    O     34.11271654     32.06880124     38.45147131      7.12214240
    O     34.04608815     29.40246220     46.23560282      7.05780344
   Ti     35.72274322     30.11626717     45.41409798      1.11332031
    O     34.13528149     32.23394978     42.62629208      7.14889245
   Ti     36.14079236     32.05973193     43.05197779      1.69779644
    O     36.11956370     31.93680411     40.97082375      7.12698290
    O     36.02202721     32.07239983     45.14847096      7.06902139
    O     35.87108197     30.02587992     43.41605957      6.99240062
   Ti     38.09311190     30.01287113     38.10000168      1.71236537
    O     42.37168647     34.05368622     40.38880507      7.13413749
   Ti     38.13113387     31.99490669     40.57986809      1.70175301
    O     38.10880799     32.02952356     38.50569275      7.13113949
    O     38.16539650     32.00350898     42.66453519      7.13648106
   Ti     40.19611080     32.24531952     42.98861574      1.69622324
    O     40.16036865     32.04313704     40.93568407      7.06706117
    O     40.21149634     30.81833953     44.37094653      7.59537888
   Ti     42.07479894     30.25688236     38.21008358      1.40349441
   Ti     42.14647258     32.01416045     40.65801942      1.57876254
    O     42.67623625     32.12255311     38.62267662      7.05699310
    O     42.22843954     32.08752446     42.67969248      7.33692983
    O     26.98840393     38.06662110     40.09883543      6.49963603
   Ti     26.14545374     34.07282670     38.35884192      1.55601531
    O     29.87995103     38.01050635     40.07771035      7.13509586
   Ti     26.40749690     36.10337742     40.68918275      1.51884300
    O     25.66406090     36.04840259     38.74611090      7.04808390
    O     26.22628767     36.33438122     42.68331312      7.31308122
   Ti     28.15992396     35.84404985     43.15143398      1.69469014
    O     28.25747991     35.47861595     41.10693464      7.06890581
    O     28.08192699     34.08535005     44.06691327      7.21548880
   Ti     30.15591655     34.06863120     38.10397124      1.74621188
    O     33.93038033     38.12801074     40.06102362      7.16998694
   Ti     30.15270354     36.06059549     40.61450570      1.73195300
    O     30.30310507     36.03996666     38.53423874      7.12662240
    O     30.91460094     34.03259995     46.84435744      7.57958078
   Ti     32.39134288     34.08739877     45.53360426      1.68534582
    O     30.11894174     36.27192080     42.70910904      7.13799540
   Ti     32.13705576     36.11736218     43.11210712      1.70554253
    O     32.13890378     36.19886345     41.03331420      7.12234500
    O     32.32347644     36.10830662     45.19162106      7.06278073
    O     31.99942492     34.09072904     43.51022023      7.11745910
   Ti     34.12377980     34.07047221     38.04589505      1.73915695
    O     38.10325167     38.18628625     40.18522487      7.17560422
   Ti     34.12324393     36.11038806     40.54501060      1.70663774
    O     34.15695739     36.07189046     38.46365812      7.12368346
    O     34.18761376     34.13780020     46.41351393      7.24984324
   Ti     35.95687178     34.09150024     45.49307783      1.68578349
    O     34.13871277     35.98452439     42.64760064      7.15293148
   Ti     36.15637359     36.12324219     43.05595946      1.69864020
    O     36.12754280     36.20487852     40.97474081      7.12616263
    O     36.10494297     36.11011718     45.15133562      7.06723567
    O     36.21622465     34.09144514     43.44838310      7.12074963
   Ti     38.10595044     34.06285310     38.17552209      1.71978076
    O     42.34417263     38.09257999     40.21078017      7.33353716
   Ti     38.13799227     36.13523133     40.57725890      1.70094173
    O     38.10035134     36.09524798     38.50321644      7.12954669
    O     37.43765497     34.06418161     46.80652546      7.58685811
    O     38.18039321     36.15555780     42.66167044      7.13654667
   Ti     40.20565163     35.88173390     42.98974172      1.69521589
    O     40.16764143     36.06509923     40.93332863      7.06867013
    O     40.15121729     34.06377257     43.81016057      7.24016297
   Ti     42.12688757     34.05448320     38.31870348      1.61011161
   Ti     42.15354989     36.09426781     40.65573604      1.57906824
    O     42.68390548     35.98250328     38.62070194      7.05625605
    O     42.23806531     36.03138456     42.67739930      7.33649053
   Ti     26.28202196     37.86541101     38.17124007      1.37105275
    O     29.37673204     42.01984825     39.92170447      7.34712499
    O     27.52924123     39.30998421     40.71176214      6.70675422
    O     28.18372430     37.20740321     44.61906565      7.61764530
   Ti     30.07841057     37.99304686     37.99067702      1.73434317
    O     33.81968288     42.22700608     39.91378356      7.34038733
   Ti     29.54987478     40.00557706     40.39470979      1.67640180
    O     29.68925186     39.96829717     38.29722440      7.07614472
   Ti     32.39144723     38.07867069     45.46988600      1.13530846
    O     29.83043129     40.29333343     42.41476225      7.32287254
   Ti     31.80611865     39.87739325     42.50717653      1.38435366
    O     31.69984976     39.99890694     40.48811863      7.13562567
    O     32.16240485     38.16611348     43.47895729      6.99682830
   Ti     34.08364380     38.05519623     37.97835721      1.72660843
    O     37.91451697     42.28865094     39.99655472      7.34632772
   Ti     33.76735112     40.20032883     40.24512034      1.70843495
    O     33.96877537     40.10235173     38.18512623      7.07632917
    O     34.12803249     38.69089758     46.19066762      7.18501902
   Ti     35.84457376     38.06620173     45.42753138      1.13603331
    O     33.74268307     40.51726730     42.31020177      7.07778197
   Ti     35.68474111     39.94180265     42.55763800      1.41630118
    O     35.82568037     39.98153822     40.54811814      7.12214834
    O     35.93604328     38.16127762     43.42728637      6.99159659
   Ti     38.10256955     38.10908578     38.09283451      1.71348593
   Ti     37.91135494     40.26774925     40.47033360      1.75616747
    O     37.97086731     40.14192939     38.38663886      7.08056601
    O     37.54751889     40.68428627     42.47519740      7.33154600
    O     39.90074112     40.29261800     40.86203299      7.64913749
    O     40.23847895     37.29713393     44.38594224      7.59697029
   Ti     42.08313693     37.84812599     38.20442287      1.40337561
   Ti     30.02690782     41.91044562     37.99227847      1.39401795
   Ti     33.89606343     42.07499818     37.89440749      1.60627979
   Ti     37.71807381     42.07973770     37.98956676      1.39934882
   Sr     34.06161557     27.93647371     48.41203919      0.16772202
