  272
Geometry Step: 76
    O     28.09254785     28.04585621     35.33762413      7.64627992
    O     34.17413239     30.82076773     29.28747942      7.59405103
    O     29.83945402     25.94075395     35.96486002      7.33173141
   Ti     31.85149023     26.07051668     35.54870129      1.57483627
    O     31.88711366     25.68536884     37.61814689      7.06458536
    O     30.77449011     27.96990858     31.77110350      7.59900268
   Ti     32.21057510     27.95671908     33.14862044      1.69486284
    O     32.10668319     28.02695325     35.20375097      7.06153824
    O     31.92902719     25.94607262     33.52113686      7.34373199
    O     33.86889368     25.70510708     35.84269961      7.13238767
   Ti     35.90157080     26.01178093     35.56636527      1.57954078
    O     35.80083001     25.51532378     37.61054994      7.05963659
    O     34.02082612     27.96140741     32.31159712      7.23745358
   Ti     35.80461257     27.94947245     33.20318786      1.69645644
    O     35.94079132     27.99397739     35.25817219      7.06774051
    O     35.87720206     25.91292167     33.54332806      7.34132585
    O     37.89609705     25.75793896     36.00116442      7.33651295
    O     37.28662507     27.86509396     31.88398166      7.59428665
    O     40.21002529     27.94522935     35.45999312      7.64402920
    O     29.65220848     34.06901312     29.81544295      7.18465705
    O     25.98710492     29.81510869     36.20970856      7.32887520
   Ti     27.94089566     30.05486581     35.57057980      1.76204176
    O     28.12701475     30.63343938     37.56295698      7.07741095
   Ti     28.16417430     32.21218583     33.38841613      1.43148337
    O     28.32129966     32.11045325     35.38000334      7.09418431
    O     27.45221665     30.34582519     33.58310213      7.31521566
    O     34.08580965     34.06395174     29.76612608      7.23749235
   Ti     30.15626767     32.32503854     30.60051008      1.13568020
    O     30.02087275     29.97184356     35.89127866      7.18044967
   Ti     32.05859466     30.05335742     35.51299451      1.71670386
    O     32.06305546     30.04755201     37.58763325      7.12002278
    O     29.99652081     32.17404684     32.59405616      6.99268628
   Ti     32.03475557     32.03576591     33.03007604      1.69052156
    O     32.10090775     32.05451377     30.94181388      7.06077781
    O     31.98635802     32.06381016     35.11060083      7.12675429
    O     32.04126240     30.00320787     33.43006538      7.14102729
    O     38.72137921     34.05945455     30.06714238      7.18490658
   Ti     34.11189087     32.27362420     30.64084054      1.68347496
    O     34.09880497     30.15625925     35.88939792      7.15908197
   Ti     36.15226647     30.02571554     35.57624306      1.70408595
    O     36.09207049     30.07152593     37.65220826      7.12462483
    O     34.08076945     32.04627930     32.69118830      7.12364799
   Ti     36.11222510     32.02584369     33.10619528      1.69039054
    O     36.12138817     32.15476067     31.01918018      7.06268764
    O     36.24563748     32.04276306     35.18339471      7.13399134
    O     36.07407688     29.98676127     33.49316236      7.14287284
   Ti     38.08695713     32.31509567     30.75089921      1.13621853
    O     38.18142860     29.90465182     36.00838284      7.17094555
   Ti     40.26753895     29.94793087     35.74856971      1.76131680
    O     40.12761973     30.02129352     37.83345103      7.07936239
    O     38.16335601     32.07847923     32.74110366      6.99087034
   Ti     39.94950401     32.13844992     33.62339637      1.42156857
    O     39.98620994     32.03166816     35.63431273      7.11097605
    O     40.63407952     30.25455867     33.72850958      7.32681699
    O     42.28522845     29.93807385     36.22321906      7.34044521
    O     25.94566721     34.08765671     36.32166030      7.34223895
   Ti     27.94246370     34.07414231     35.82403205      1.70894448
    O     28.10303034     34.05800798     37.90146892      7.07980469
   Ti     28.17070152     35.93072626     33.38962518      1.43439423
    O     28.34047700     36.03952387     35.38002673      7.09455277
    O     27.43984354     34.07361873     33.75609282      7.07097290
    O     34.18296710     37.30695464     29.28446654      7.59412813
   Ti     30.16006074     35.81427656     30.59504980      1.13566273
    O     30.05588154     34.06550305     36.02276226      7.18623748
   Ti     32.08296065     34.06944431     35.52696862      1.70731687
    O     32.13598480     34.11063833     37.60052224      7.12567870
    O     29.99975225     35.96881532     32.58812325      6.99228589
   Ti     32.03741527     36.10264301     33.02570146      1.69073418
    O     32.10505907     36.08136431     30.93747238      7.06079607
    O     31.98127232     36.07670377     35.10560280      7.12562236
    O     32.10466330     34.06952265     33.42434897      7.16130964
   Ti     34.11556311     35.85517113     30.63880040      1.68354087
    O     34.12682975     34.06605773     35.93705107      7.16503944
   Ti     36.17691951     34.06504366     35.58821002      1.70670217
    O     36.12381905     34.05796073     37.66865942      7.12115083
    O     34.08368167     36.08337177     32.68896436      7.12361899
   Ti     36.11501775     36.09849419     33.10483429      1.69048675
    O     36.12509734     35.96872622     31.01816652      7.06251737
    O     36.24100981     36.08518219     35.18271529      7.13343754
    O     36.08320297     34.06240134     33.50237355      7.15497539
   Ti     38.09046834     35.80497420     30.75104366      1.13633870
    O     38.19503549     34.06620023     36.09027622      7.17437653
   Ti     40.28014745     34.06112415     35.92350795      1.71901039
    O     40.15256414     34.06566680     37.98922684      7.07317017
    O     38.16651054     36.03970570     32.74155358      6.99102727
   Ti     39.95558167     35.97793642     33.61795393      1.42072715
    O     39.99644949     36.08903750     35.62868508      7.10888465
    O     40.59687343     34.05729675     33.84199346      7.07174307
    O     42.29859138     34.05476152     36.29280006      7.34025998
    O     25.99647199     38.33321740     36.20958677      7.33075539
   Ti     27.94907258     38.09098863     35.56437705      1.76321793
    O     28.13503595     37.53585210     37.56110338      7.07765908
    O     28.09022897     40.09494361     35.29681244      7.64608765
    O     27.44223221     37.78976463     33.58147832      7.31553496
    O     30.02782940     38.18964470     35.89475648      7.18173954
   Ti     32.06376072     38.08063507     35.51257521      1.71723757
    O     32.07161922     38.06023434     37.58729628      7.11797701
    O     30.77596272     40.16768012     31.77746736      7.59910847
   Ti     32.21902925     40.18112034     33.14793201      1.69442020
    O     32.12375397     40.11040727     35.20363001      7.06370469
    O     32.04826774     38.13471276     33.42912684      7.14150386
    O     34.10416166     37.98284561     35.89023216      7.15964722
   Ti     36.15696778     38.10459513     35.57021611      1.70460851
    O     36.09934485     38.08313318     37.64679849      7.12517754
    O     34.02661589     40.16950888     32.30458522      7.23768281
   Ti     35.81369822     40.17489852     33.19001717      1.69623602
    O     35.95610124     40.13314564     35.24474712      7.06704787
    O     36.07958459     38.13821538     33.48700191      7.14281754
    O     38.18783124     38.21314316     35.99858213      7.17089511
   Ti     40.27405090     38.16956374     35.73972321      1.76240139
    O     40.13595515     38.09715019     37.82457598      7.07974606
    O     37.29087968     40.25056893     31.86467797      7.59431619
    O     40.21958910     40.17221429     35.45357791      7.64407710
    O     40.63995530     37.86237584     33.71958694      7.32715691
    O     42.29238269     38.17830904     36.21228749      7.34017616
    O     29.85939789     42.19138895     35.97572321      7.33099547
   Ti     31.86933554     42.06681396     35.55083616      1.57518271
    O     31.91750100     42.47992094     37.61534252      7.06451248
    O     31.94011551     42.19175522     33.52393175      7.34318634
    O     33.88950311     42.42469722     35.83432235      7.13268192
   Ti     35.91995744     42.11619355     35.55138258      1.57988068
    O     35.82836560     42.61700876     37.59477624      7.05967485
    O     35.89268354     42.21141383     33.52814334      7.34134004
    O     37.91654873     42.36887644     35.97527399      7.33628089
    O     29.35067758     26.13311073     39.90969766      7.34716387
    O     33.77783834     25.91796277     39.91877264      7.33928121
    O     37.86937602     25.84748447     40.02042651      7.34639005
    O     26.92314498     30.06345523     40.09066927      6.49682433
    O     29.83574899     30.14564614     40.06513228      7.13512186
    O     27.49210491     28.82715050     40.69182707      6.70780726
   Ti     29.99131468     26.23688580     37.97621660      1.39237280
    O     33.93040214     30.01324752     40.05749783      7.17034273
   Ti     29.51887196     28.14844840     40.37853932      1.67579828
    O     29.66683204     28.18293044     38.28233482      7.07738499
    O     29.79731288     27.87436484     42.40081247      7.32302715
   Ti     31.76939508     28.30906994     42.49528946      1.38348589
    O     31.67000830     28.17036725     40.47674298      7.13602173
   Ti     33.86600613     26.06048898     37.89858272      1.60429337
    O     38.08819983     29.94717053     40.19470907      7.17533995
   Ti     33.73582353     27.94441146     40.24214333      1.70744593
    O     33.95820326     28.03528787     38.18306946      7.07964024
    O     33.70609408     27.66321980     42.31186293      7.07763308
   Ti     35.65053793     28.23364254     42.56019836      1.41479762
    O     35.79979840     28.15030350     40.55298605      7.12489169
   Ti     37.68788145     26.04813240     38.01066480      1.39736744
    O     42.33055878     30.02190617     40.21867367      7.33353356
   Ti     37.88482370     27.86964526     40.48640499      1.75743218
    O     37.94636612     27.98885335     38.40111782      7.08199921
    O     37.51168080     27.48284900     42.49580865      7.33245184
    O     39.87275832     27.82975003     40.88330073      7.64908777
    O     25.94454647     34.07950487     40.43923875      7.16331689
   Ti     26.26416544     30.29259433     38.15338165      1.37524525
    O     30.46857772     34.07294919     40.17796720      7.16393468
   Ti     26.38219704     32.03995273     40.67380326      1.51950283
    O     25.64036659     32.10690165     38.73055850      7.04859305
    O     26.19675387     31.87140997     42.67347415      7.31651521
   Ti     28.14597134     32.33156035     43.12470550      1.69587509
    O     28.24767869     32.62554334     41.07207651      7.06756089
    O     28.16716572     30.92995146     44.55294029      7.61466433
   Ti     30.06696981     30.15783671     37.98160454      1.73427524
    O     34.09188666     34.07234809     40.14980155      7.15647202
   Ti     30.16245473     32.08547138     40.60813513      1.73411592
    O     30.35019580     32.10264739     38.52798033      7.12742312
   Ti     32.38178828     30.09889621     45.48203239      1.11357450
    O     30.12153767     31.95421273     42.70965862      7.14129312
   Ti     32.14244586     32.05481733     43.12067405      1.70511931
    O     32.13972241     31.90607362     41.04516094      7.12015711
    O     32.48445596     32.06742423     45.18112950      7.06210908
    O     32.09529338     30.00853027     43.49993414      6.99564687
   Ti     34.07233044     30.08553543     37.97542242      1.72507255
    O     38.05540643     34.06693771     40.26472631      7.16671354
   Ti     34.11634456     32.03247631     40.54006398      1.70797680
    O     34.11243553     32.07303967     38.45911553      7.12200856
    O     34.08406464     29.34785207     46.21309331      7.05834469
   Ti     35.76358192     30.10268920     45.43731039      1.11528670
    O     34.13348677     32.21669481     42.63762295      7.14910424
   Ti     36.13788164     32.04464912     43.06422609      1.69819912
    O     36.11545381     31.91591977     40.98356260      7.12612765
    O     35.98488208     32.06502073     45.15953255      7.06872993
    O     35.90949308     30.00863801     43.43943178      6.99173594
   Ti     38.09112624     30.01941907     38.10126991      1.71247199
    O     42.36221013     34.06064801     40.38658975      7.13402887
   Ti     38.12521885     31.99820871     40.58785157      1.70135334
    O     38.10115413     32.03413100     38.51302241      7.13054963
    O     38.16401929     32.00584770     42.67302859      7.13782995
   Ti     40.19557168     32.24615538     42.99486737      1.69594700
    O     40.15465766     32.05340206     40.94144134      7.06703560
    O     40.21993560     30.82190425     44.38042815      7.59563944
   Ti     42.07262942     30.25973655     38.21090503      1.40342921
   Ti     42.13970590     32.02122419     40.65797887      1.57904816
    O     42.66828272     32.12733950     38.62222045      7.05687401
    O     42.22759099     32.09154010     42.67960440      7.33713349
    O     26.98803017     38.07435185     40.08595464      6.49992797
   Ti     26.14259877     34.08056274     38.34991329      1.55591892
    O     29.88779987     38.01754279     40.07547737      7.13493444
   Ti     26.40589768     36.11334280     40.67833239      1.51968466
    O     25.66133645     36.05667103     38.73582693      7.04810980
    O     26.22427988     36.33778102     42.67300537      7.31378113
   Ti     28.15689075     35.83966206     43.14233513      1.69492357
    O     28.25593687     35.49012383     41.09638886      7.06815320
    O     28.09882241     34.08121791     44.05987702      7.21497449
   Ti     30.15343086     34.07182566     38.09997421      1.74616524
    O     33.92205322     38.12944232     40.05986654      7.17031364
   Ti     30.15398346     36.06644474     40.61141444      1.73227785
    O     30.28754495     36.04417192     38.53041886      7.12660994
    O     30.92087851     34.03117061     46.85025691      7.57795501
   Ti     32.39785028     34.08169664     45.54204472      1.68599571
    O     30.11836591     36.26354680     42.70751794      7.13832004
   Ti     32.13562772     36.10616137     43.11401964      1.70449010
    O     32.13934711     36.18512221     41.03537109      7.12153856
    O     32.33044068     36.10293835     45.19223584      7.06303170
    O     31.98520260     34.08071666     43.52447576      7.11654365
   Ti     34.12144563     34.07311362     38.04740073      1.73898566
    O     38.09971629     38.18816513     40.18460935      7.17571594
   Ti     34.12294584     36.11213052     40.54506736      1.70692713
    O     34.15853549     36.07468800     38.46379975      7.12381512
    O     34.18929482     34.14479989     46.43188081      7.25144860
   Ti     35.95663522     34.08417307     45.50589189      1.68606645
    O     34.13711107     35.96993125     42.64693321      7.15291140
   Ti     36.15455607     36.10413332     43.05742595      1.69792444
    O     36.12638286     36.20440369     40.97558251      7.12642195
    O     36.10692982     36.10057325     45.15446013      7.06692718
    O     36.21514378     34.07482822     43.46299860      7.11936829
   Ti     38.10185868     34.06524037     38.17917132      1.72054707
    O     42.34363106     38.10019553     40.20417367      7.33332755
   Ti     38.13654402     36.13717215     40.57838267      1.70144780
    O     38.09710017     36.09731686     38.50494281      7.12889013
    O     37.46169641     34.04638037     46.79102382      7.58610438
    O     38.17930234     36.13769384     42.66276436      7.13738829
   Ti     40.20788243     35.88414649     42.98693547      1.69523116
    O     40.16649885     36.07454117     40.93139247      7.06817457
    O     40.14882768     34.06704401     43.81052743      7.24072579
   Ti     42.12204810     34.05990181     38.31658074      1.61031657
   Ti     42.15192664     36.10242036     40.65038844      1.57909255
    O     42.68366806     35.98723876     38.61662950      7.05598292
    O     42.23917656     36.03904039     42.67192626      7.33629253
   Ti     26.27468305     37.87481743     38.15915227      1.36914178
    O     29.37259113     42.02627316     39.91752642      7.34701863
    O     27.52809736     39.31541329     40.70377473      6.70655700
    O     28.17787335     37.20494151     44.60756245      7.61731917
   Ti     30.07611112     37.99889708     37.98685496      1.73388191
    O     33.81962003     42.22979007     39.91303670      7.34019832
   Ti     29.54837811     40.01172144     40.38709144      1.67699823
    O     29.69903166     39.97679468     38.29150106      7.07596890
   Ti     32.39755066     38.07516201     45.45553641      1.13687380
    O     29.82932766     40.29130031     42.40752011      7.32296195
   Ti     31.80461750     39.87090422     42.49717747      1.38414416
    O     31.69886474     40.00903750     40.48072121      7.13536513
    O     32.15981145     38.15771621     43.46651475      6.99656955
   Ti     34.08029524     38.05797373     37.97709250      1.72580823
    O     37.90400914     42.29033844     39.99372073      7.34631935
   Ti     33.76633040     40.20312545     40.23994655      1.70974372
    O     33.96120583     40.10630350     38.18003114      7.07671035
    O     34.13739637     38.68427413     46.16914497      7.18387148
   Ti     35.85768474     38.05836241     45.41962440      1.13803578
    O     33.74365867     40.50587699     42.30678269      7.07762349
   Ti     35.68364604     39.92307711     42.55000258      1.41750426
    O     35.82285442     39.97858182     40.54158962      7.12158379
    O     35.94868170     38.14466158     43.41924069      6.99133045
   Ti     38.09924618     38.11020076     38.09165127      1.71312857
   Ti     37.90823134     40.26950724     40.46684689      1.75637664
    O     37.97455532     40.14386501     38.38350135      7.08055938
    O     37.53924637     40.68314220     42.47139756      7.33134203
    O     39.89641925     40.29921379     40.86487137      7.64903810
    O     40.23180574     37.31112140     44.37104838      7.59641411
   Ti     42.08094767     37.85207058     38.19868510      1.40384480
   Ti     30.02630119     41.92128168     37.98892838      1.39352690
   Ti     33.89243704     42.08037436     37.89261466      1.60518637
   Ti     37.71681409     42.08114290     37.98583132      1.39874815
   Sr     34.09694533     27.47231219     48.05231374      0.25396503
    H     34.05305903     28.38523176     50.66168423      0.95708940
    H     34.06741457     27.64407855     50.83740764      0.95598221
