  271
Geometry Step: 128
    O     28.10733992     28.05201829     35.31923085      7.64849882
    O     34.16086683     30.81942331     29.29519797      7.59428110
    O     29.84865729     25.93775234     36.01317909      7.33106507
   Ti     31.85963675     26.07121283     35.59829703      1.57631915
    O     31.89870790     25.69754606     37.67069766      7.06450748
    O     30.74518945     27.94505166     31.82706066      7.59943328
   Ti     32.19992133     27.94567793     33.18536161      1.69462879
    O     32.12830631     28.02372374     35.24085247      7.06092996
    O     31.92163342     25.93653969     33.57123123      7.34399510
    O     33.87261425     25.68524370     35.88992736      7.13128092
   Ti     35.89778204     26.01534685     35.59246226      1.58136764
    O     35.82106690     25.53428929     37.64139239      7.06100514
    O     34.00289434     27.95393708     32.33289319      7.23764024
   Ti     35.78842747     27.94557501     33.22202685      1.69623137
    O     35.94342707     27.99600606     35.27503615      7.06722312
    O     35.84567684     25.90899286     33.57068454      7.34217239
    O     37.89452747     25.74194344     36.00018356      7.33563313
    O     37.26869595     27.84216232     31.90338883      7.59350292
    O     40.21346192     27.95263228     35.44709050      7.64437904
    O     29.64731112     34.06247926     29.82581674      7.18503340
    O     26.01128245     29.78365195     36.26458015      7.32818645
   Ti     27.95384774     30.05625848     35.60365926      1.76190975
    O     28.15026665     30.64404815     37.59375420      7.07700016
   Ti     28.15699656     32.20223778     33.41106977      1.43362728
    O     28.35105903     32.09907104     35.39928223      7.09027425
    O     27.41922923     30.34913209     33.62571022      7.31619514
    O     34.06417695     34.06158672     29.77337154      7.23748814
   Ti     30.14301264     32.31740699     30.61486121      1.13495092
    O     30.03272147     29.95534150     35.92559710      7.18001359
   Ti     32.06785090     30.05144884     35.53675216      1.71690739
    O     32.08183394     30.04072017     37.61154711      7.12055717
    O     29.98612577     32.16395546     32.60865020      6.99311308
   Ti     32.02523448     32.02674136     33.04490195      1.68868445
    O     32.08708198     32.03973889     30.95590995      7.06103269
    O     31.99110736     32.05947337     35.12571856      7.12605322
    O     32.02901910     29.99443227     33.45421913      7.14167610
    O     38.69754237     34.06436864     30.05511490      7.18503316
   Ti     34.09583905     32.27165176     30.64930790      1.68295102
    O     34.11052129     30.16107584     35.90060145      7.15901491
   Ti     36.16312341     30.02912315     35.58008670      1.70392792
    O     36.11389644     30.06210465     37.65671756      7.12497445
    O     34.07092167     32.04255901     32.70040767      7.12418964
   Ti     36.10405335     32.02517249     33.10930807      1.68861334
    O     36.10673970     32.15402357     31.02127947      7.06316457
    O     36.25101239     32.04604957     35.18539390      7.13400280
    O     36.06781122     29.98469521     33.49812997      7.14348974
   Ti     38.07128356     32.32059794     30.74809613      1.13618178
    O     38.19497656     29.91452087     36.00004576      7.16971947
   Ti     40.27882392     29.95647799     35.72898680      1.76105910
    O     40.15420308     30.03253062     37.81608810      7.08144960
    O     38.15465396     32.08334867     32.73805463      6.99147702
   Ti     39.94844563     32.14619053     33.60517691      1.42055900
    O     40.00559634     32.04164414     35.61581706      7.11142828
    O     40.63127009     30.26106923     33.70594667      7.32705970
    O     42.29921705     29.94096807     36.18929839      7.33911325
    O     25.95910421     34.05196624     36.36192512      7.34257711
   Ti     27.95386296     34.05734693     35.85299682      1.70794797
    O     28.12415411     34.04895585     37.93032003      7.07943249
   Ti     28.16172001     35.91351187     33.41351086      1.43422876
    O     28.34844905     36.02150465     35.40223189      7.09403693
    O     27.43001805     34.05855765     33.78985831      7.06978713
    O     34.15969920     37.31001596     29.29106386      7.59455363
   Ti     30.14459065     35.80816269     30.61161642      1.13555351
    O     30.06761530     34.05878494     36.04921614      7.18641185
   Ti     32.09116888     34.06437347     35.54121138      1.70771371
    O     32.15436007     34.10145230     37.61456682      7.12614187
    O     29.98821254     35.95632558     32.60561880      6.99280310
   Ti     32.02731368     36.09586320     33.03900126      1.69018816
    O     32.08870179     36.08594605     30.95085346      7.06066546
    O     31.98191682     36.07075969     35.11924099      7.12559223
    O     32.09615979     34.06218635     33.43768696      7.16234742
   Ti     34.09732941     35.85473810     30.64243710      1.68306712
    O     34.13731892     34.06752294     35.94048036      7.16476710
   Ti     36.18660398     34.06999954     35.58516864      1.70678753
    O     36.14405042     34.07093451     37.66562763      7.12084751
    O     34.07244229     36.07969754     32.69312158      7.12366134
   Ti     36.10511699     36.10134761     33.10197953      1.68962226
    O     36.10818503     35.97583602     31.01381547      7.06313669
    O     36.24485636     36.08951848     35.17889583      7.13280508
    O     36.07874495     34.06428442     33.50013726      7.15585074
   Ti     38.07296753     35.81148486     30.74098959      1.13624603
    O     38.20879784     34.07197177     36.07104134      7.17375405
   Ti     40.29347664     34.07354254     35.89714283      1.71907319
    O     40.17686789     34.08162894     37.96292014      7.07338548
    O     38.15515260     36.04740233     32.73108594      6.99095426
   Ti     39.94950800     35.98974658     33.59693676      1.41989985
    O     40.00528915     36.10184076     35.60744409      7.10923383
    O     40.59239630     34.06807499     33.81378419      7.07222953
    O     42.31407911     34.07354347     36.25366838      7.34024259
    O     26.00065283     38.31803334     36.24463527      7.32952312
   Ti     27.95004428     38.07059902     35.59364414      1.76302072
    O     28.14342671     37.50388934     37.58813618      7.07817798
    O     28.09187075     40.07487016     35.32647057      7.64633035
    O     27.43121982     37.77080590     33.61357391      7.31532080
    O     30.02888266     38.17631181     35.91774969      7.18098427
   Ti     32.06355123     38.07435071     35.52874966      1.71728070
    O     32.07690835     38.06683527     37.60434948      7.11889002
    O     30.76189538     40.15384413     31.79165761      7.59926306
   Ti     32.20683497     40.17311985     33.16008366      1.69488337
    O     32.12158433     40.10361579     35.21655619      7.06352392
    O     32.03860510     38.12741328     33.44520297      7.14150322
    O     34.10448853     37.97613689     35.89951746      7.15917063
   Ti     36.15484224     38.10755617     35.56896567      1.70485194
    O     36.10586743     38.09176089     37.64603223      7.12545108
    O     34.00985150     40.16638780     32.30759368      7.23731559
   Ti     35.79620056     40.17886026     33.19434943      1.69663087
    O     35.93877467     40.13530394     35.24820125      7.06625973
    O     36.06579196     38.14133676     33.48620644      7.14340516
    O     38.18703047     38.22509078     35.98682720      7.16966897
   Ti     40.27070960     38.18433597     35.71543695      1.76227648
    O     40.14470302     38.11299181     37.80267625      7.08083649
    O     37.27900651     40.26043278     31.87640458      7.59393527
    O     40.21240865     40.18749925     35.43339866      7.64424501
    O     40.62968980     37.87628286     33.69485007      7.32707608
    O     42.29167840     38.20089112     36.17664495      7.33972771
    O     29.84406212     42.18174922     35.98576881      7.33127996
   Ti     31.85421741     42.05811646     35.56257454      1.57585461
    O     31.89803347     42.44801244     37.63086532      7.06484560
    O     31.92078747     42.18253799     33.53487385      7.34343893
    O     33.87117365     42.43128392     35.84717296      7.13175860
   Ti     35.90033602     42.11763001     35.55702191      1.58052927
    O     35.81618156     42.61159079     37.60237618      7.06018552
    O     35.86786177     42.21593246     33.53412744      7.34161205
    O     37.89728082     42.38045657     35.97175556      7.33637307
    O     29.37580561     26.13404098     39.96275241      7.34690138
    O     33.81640231     25.92809524     39.96629971      7.33931385
    O     37.92411232     25.84953549     40.01490776      7.34596385
    O     26.96138543     30.04913764     40.13754762      6.49489125
    O     29.87173552     30.14555804     40.10018564      7.13603698
    O     27.53391524     28.82353237     40.75538774      6.70712613
   Ti     29.99987633     26.23600434     38.02425452      1.39346022
    O     33.98051953     30.01904904     40.06634551      7.16538293
   Ti     29.55927519     28.14903055     40.42574816      1.67787130
    O     29.67675051     28.18240748     38.32759847      7.07672274
    O     29.83973663     27.86219794     42.44463257      7.32315406
   Ti     31.81081385     28.29665729     42.54129973      1.38355150
    O     31.70929870     28.17151273     40.52342815      7.13386727
   Ti     33.88156459     26.05585136     37.94433427      1.60236916
    O     38.12670312     29.95555866     40.18536130      7.17666333
   Ti     33.77482238     27.95734131     40.27652144      1.70638830
    O     33.97842867     28.03260692     38.21219368      7.08174900
    O     33.76438650     27.70143391     42.34970106      7.07833329
   Ti     35.72247519     28.23598526     42.57270003      1.41373213
    O     35.84691934     28.15968721     40.56402829      7.12648337
   Ti     37.71838309     26.05281465     38.00934586      1.39847478
    O     42.39332622     30.03766202     40.17611492      7.33345298
   Ti     37.93171012     27.87260688     40.48011336      1.75543777
    O     37.99581223     27.99171876     38.39647414      7.08123620
    O     37.56286579     27.43673589     42.48167109      7.33477847
    O     39.91689752     27.84234253     40.88641574      7.64804789
    O     25.97267659     34.05928497     40.47944667      7.16241485
   Ti     26.29951652     30.27168581     38.20282916      1.37726192
    O     30.49726447     34.07014465     40.20242793      7.15838647
   Ti     26.41733946     32.02311191     40.72121910      1.52059393
    O     25.66519323     32.08166918     38.78141260      7.04853748
    O     26.25218204     31.84977462     42.72302532      7.31707248
   Ti     28.20115386     32.32306763     43.15862938      1.69565203
    O     28.28681784     32.60662693     41.10389860      7.06785501
    O     28.26528944     30.89657400     44.56005239      7.61349639
   Ti     30.08670779     30.15342185     38.01383052      1.73387415
    O     34.11580922     34.07493805     40.15380820      7.15641053
   Ti     30.20687367     32.08638255     40.63628467      1.73496771
    O     30.38517904     32.09748783     38.55485445      7.12761954
   Ti     32.52797294     30.09757088     45.50282987      1.29663074
    O     30.18595235     32.00621280     42.73863808      7.14284875
   Ti     32.21465725     32.03006710     43.12840919      1.70324861
    O     32.19051852     31.90528906     41.05260512      7.12130837
    O     32.73345132     32.04995747     45.16439122      7.06786480
    O     32.04646172     30.00258024     43.55720006      6.99501967
   Ti     34.09423697     30.08214770     37.98504103      1.72533986
    O     38.11063354     34.07885749     40.24380095      7.16680695
   Ti     34.16683074     32.03562635     40.53580279      1.71235465
    O     34.14582431     32.07316689     38.45396631      7.12340630
    O     34.24591351     29.25901821     46.00585146      7.18425091
   Ti     35.93893110     30.09053007     45.40520920      1.13577123
    O     34.20259230     32.13232298     42.62349530      7.13892494
   Ti     36.20703997     32.05104995     43.03670592      1.70197510
    O     36.17539476     31.96005163     40.95408215      7.12851499
    O     35.98692394     32.06488098     45.12582447      7.06934349
    O     36.12347786     30.00455359     43.41208959      6.99229611
   Ti     38.11653165     30.02454503     38.09242649      1.71159726
    O     42.40627140     34.07851670     40.34658802      7.13397917
   Ti     38.18738538     32.00923148     40.56278680      1.70209358
    O     38.13349921     32.04248627     38.49051555      7.13063425
    O     38.23463629     32.03671539     42.64601991      7.13938833
   Ti     40.26773419     32.26765653     42.96113885      1.69641738
    O     40.21838307     32.05896299     40.90946076      7.06704646
    O     40.28732202     30.83930901     44.34178480      7.59493911
   Ti     42.10205137     30.28019557     38.17401554      1.40500796
   Ti     42.20285402     32.03714667     40.61855246      1.57753724
    O     42.70964466     32.14607382     38.57721709      7.05664815
    O     42.29904422     32.11381933     42.64014656      7.33723319
    O     26.96763523     38.06737206     40.12009412      6.49726215
   Ti     26.16603170     34.05309208     38.38928526      1.55640920
    O     29.88977651     38.00278462     40.09805067      7.13606015
   Ti     26.41553746     36.09668747     40.71019045      1.52038005
    O     25.67081507     36.02699019     38.76850701      7.04818772
    O     26.23625898     36.29425515     42.70805610      7.31574845
   Ti     28.18087332     35.82365309     43.16254054      1.69430519
    O     28.27842942     35.50466823     41.11351934      7.06690627
    O     28.10822811     34.07211186     44.09616547      7.21730377
   Ti     30.17443481     34.06434642     38.12543581      1.74637023
    O     33.94359362     38.12962121     40.07051119      7.17134801
   Ti     30.18622334     36.05701574     40.63792225      1.73327797
    O     30.32111569     36.03564478     38.55544311      7.12707292
    O     31.08340588     33.88535172     46.89756271      7.57790096
   Ti     32.52448628     34.04910496     45.55894267      1.68571348
    O     30.15851435     36.19161479     42.73897070      7.13870159
   Ti     32.17677984     36.07915907     43.13904478      1.70420728
    O     32.17110037     36.19868695     41.06113311      7.12249654
    O     32.31285480     36.06351991     45.22398646      7.06368940
    O     32.09088611     34.05063255     43.54287659      7.11590156
   Ti     34.14235945     34.07521884     38.05003988      1.73813420
    O     38.11338163     38.20047806     40.17164947      7.17426660
   Ti     34.15179049     36.11344873     40.55825249      1.70578085
    O     34.17256977     36.07599299     38.47621438      7.12430657
    O     34.31328437     34.21156747     46.44233477      7.25173323
   Ti     36.05834382     34.08110707     45.47980616      1.68734758
    O     34.17989516     35.96795299     42.66080223      7.15571104
   Ti     36.20352996     36.11122792     43.04711264      1.69914184
    O     36.15986965     36.20439634     40.96738850      7.12525577
    O     36.26499662     36.09675461     45.14277187      7.06773192
    O     36.26331096     34.07995179     43.43306450      7.11568811
   Ti     38.12623500     34.07634345     38.15935782      1.71978452
    O     42.37386691     38.11713317     40.16478295      7.33308709
   Ti     38.16866834     36.14932308     40.55875200      1.70097312
    O     38.11675759     36.10960210     38.48501421      7.13041941
    O     37.60868138     33.96813340     46.70350341      7.58507394
    O     38.22462852     36.15829992     42.64230911      7.13689836
   Ti     40.25551330     35.90436809     42.95637191      1.69636199
    O     40.20217349     36.09910600     40.90306723      7.06874854
    O     40.20988159     34.08707691     43.77993453      7.24094899
   Ti     42.14826549     34.07493783     38.27837075      1.61099351
   Ti     42.18732706     36.11917861     40.61151518      1.57864404
    O     42.70156265     36.00445321     38.57269155      7.05585481
    O     42.28666292     36.05646938     42.63272601      7.33694858
   Ti     26.28419240     37.84471836     38.18888378      1.37313668
    O     29.38018763     42.01096727     39.93551008      7.34729867
    O     27.52852921     39.30209769     40.73083764      6.70748990
    O     28.21613411     37.23090386     44.58523186      7.61486161
   Ti     30.08232715     37.98551828     38.00865406      1.73375552
    O     33.80122695     42.22998604     39.92356184      7.33979828
   Ti     29.54846111     39.99670217     40.41117563      1.67437896
    O     29.66209462     39.95438405     38.31254633      7.07547794
   Ti     32.43942226     38.03167725     45.49672166      1.13498472
    O     29.84151546     40.25602472     42.43438693      7.32288905
   Ti     31.81349298     39.81960187     42.51035057      1.38342266
    O     31.70034234     39.98284857     40.49314652      7.13808962
    O     32.19507499     38.12798267     43.50714254      6.99760883
   Ti     34.08809064     38.05769303     37.98604869      1.72527482
    O     37.89092724     42.29979447     39.99481348      7.34713814
   Ti     33.76577807     40.20240324     40.24904914      1.70886928
    O     33.96228477     40.10583807     38.18870939      7.07737633
    O     34.18972632     38.57610888     46.23776090      7.18476370
   Ti     35.91276117     38.03727380     45.42840919      1.13728948
    O     33.74094820     40.48970014     42.31772531      7.07771976
   Ti     35.68703123     39.91924024     42.55346901      1.41453619
    O     35.82478022     39.99335735     40.54424263      7.12221183
    O     35.94379414     38.14192461     43.42763499      6.99086863
   Ti     38.10834057     38.12573169     38.07974493      1.71257432
   Ti     37.90994810     40.27821945     40.46354438      1.75621276
    O     37.98046917     40.15887363     38.37833691      7.08141809
    O     37.54535714     40.67688393     42.47262651      7.33305281
    O     39.89804690     40.31754657     40.86108210      7.64923205
    O     40.28799596     37.32898440     44.34025549      7.59520672
   Ti     42.09241578     37.86847273     38.16217992      1.40505104
   Ti     30.00469931     41.89402112     37.99752044      1.39337375
   Ti     33.87945634     42.07951324     37.90347911      1.60443194
   Ti     37.71158304     42.09557599     37.98452252      1.39744068
    H     30.76775501     29.80566868     46.74813154      0.91827558
    H     31.29891148     29.89223397     47.30319440      0.91626962
